
     Program DOS v.6.4.1 starts on 19May2021 at 14:17:45 

     This program is part of the open-source Quantum ESPRESSO suite
     for quantum simulation of materials; please cite
         "P. Giannozzi et al., J. Phys.:Condens. Matter 21 395502 (2009);
         "P. Giannozzi et al., J. Phys.:Condens. Matter 29 465901 (2017);
          URL http://www.quantum-espresso.org", 
     in publications or presentations arising from this work. More details at
     http://www.quantum-espresso.org/quote

     Parallel version (MPI & OpenMP), running on      12 processor cores
     Number of MPI processes:                 1
     Threads/MPI process:                    12

     MPI processes distributed on     1 nodes
     Message from routine read_upf::
     Pseudo file Se.pbe-n-rrkjus_psl.1.0.0.UPF has been fixed on the fly.
To avoid this message in the future, permanently fix 
 your pseudo files following these instructions: 
https://gitlab.com/QEF/q-e/blob/master/upftools/how_to_fix_upf.md

     IMPORTANT: XC functional enforced from input :
     Exchange-correlation      = PBE ( 1  4  3  4 0 0)
     Any further DFT definition will be discarded
     Please, verify this is what you really want


     G-vector sticks info
     --------------------
     sticks:   dense  smooth     PW     G-vecs:    dense   smooth      PW
     Sum         595     271     85                92021    27217    5029

     Generating pointlists ...
     new r_m :   0.3165 (alat units)  1.9899 (a.u.) for type    1
     new r_m :   0.3165 (alat units)  1.9899 (a.u.) for type    2

     Check: negative core charge=   -0.000001

     negative rho (up, down):  5.095E-03 0.000E+00

     Gaussian broadening (read from input): ngauss,degauss=   0    0.010000


     DOS          :      8.05s CPU      3.79s WALL


   This run was terminated on:  14:17:49  19May2021            

=------------------------------------------------------------------------------=
   JOB DONE.
=------------------------------------------------------------------------------=
