
     Program PWSCF v.6.1 starts on  8Jun2021 at  9:52:33 

     This program is part of the open-source Quantum ESPRESSO suite
     for quantum simulation of materials; please cite
         "P. Giannozzi et al., J. Phys.:Condens. Matter 21 395502 (2009);
          URL http://www.quantum-espresso.org", 
     in publications or presentations arising from this work. More details at
     http://www.quantum-espresso.org/quote

     Parallel version (MPI & OpenMP), running on      16 processor cores
     Number of MPI processes:                 2
     Threads/MPI process:                     8
     R & G space division:  proc/nbgrp/npool/nimage =       2
     Reading input from espresso.in

     Current dimensions of program PWSCF are:
     Max number of different atomic species (ntypx) = 10
     Max number of k-points (npk) =  40000
     Max angular momentum in pseudopotentials (lmaxx) =  3
               file Sn.pbe-dn-rrkjus_psl.1.0.0.UPF: wavefunction(s)  5S 4D renormalized

     Subspace diagonalization in iterative solution of the eigenvalue problem:
     a serial algorithm will be used


     Parallelization info
     --------------------
     sticks:   dense  smooth     PW     G-vecs:    dense   smooth      PW
     Min         534     237     69                58688    17375    2797
     Max         535     238     70                58693    17386    2802
     Sum        1069     475    139               117381    34761    5599


     Title: 
     kpoint_2_2_2(SCF)                                                          


     bravais-lattice index     =            4
     lattice parameter (alat)  =       6.0325  a.u.
     unit-cell volume          =     796.7448 (a.u.)^3
     number of atoms/cell      =            6
     number of atomic types    =            3
     number of electrons       =        52.00
     number of Kohn-Sham states=           31
     kinetic-energy cutoff     =      47.0743  Ry
     charge density cutoff     =     423.6680  Ry
     convergence threshold     =      1.0E-06
     mixing beta               =       0.4000
     number of iterations used =            8  plain     mixing
     Exchange-correlation      =  SLA  PW   PBE  PBE ( 1  4  3  4 0 0)

     celldm(1)=   6.032459  celldm(2)=   0.000000  celldm(3)=   4.190882
     celldm(4)=   0.000000  celldm(5)=   0.000000  celldm(6)=   0.000000

     crystal axes: (cart. coord. in units of alat)
               a(1) = (   1.000000   0.000000   0.000000 )  
               a(2) = (  -0.500000   0.866025   0.000000 )  
               a(3) = (   0.000000   0.000000   4.190882 )  

     reciprocal axes: (cart. coord. in units 2 pi/alat)
               b(1) = (  1.000000  0.577350 -0.000000 )  
               b(2) = (  0.000000  1.154701  0.000000 )  
               b(3) = (  0.000000 -0.000000  0.238613 )  


     PseudoPot. # 1 for Sn read from file:
     C:\Users\ROG\.burai\.pseudopot/Sn.pbe-dn-rrkjus_psl.1.0.0.UPF
     MD5 check sum: 9f7ad82915168e737b3f6a04b7e1f5ac
     Pseudo is Ultrasoft + core correction, Zval = 14.0
     Generated using "atomic" code by A. Dal Corso  v.5.1.2
     Using radial grid of 1243 points,  6 beta functions with: 
                l(1) =   0
                l(2) =   0
                l(3) =   1
                l(4) =   1
                l(5) =   2
                l(6) =   2
     Q(r) pseudized with 0 coefficients 


     PseudoPot. # 2 for Se read from file:
     C:\Users\ROG\.burai\.pseudopot/Se.pbe-n-rrkjus_psl.1.0.0.UPF
     MD5 check sum: 5f5e5c15c95449acb3b45b44a6529d2d
     Pseudo is Ultrasoft + core correction, Zval =  6.0
     Generated using "atomic" code by A. Dal Corso  v.5.1.2
     Using radial grid of 1211 points,  4 beta functions with: 
                l(1) =   0
                l(2) =   0
                l(3) =   1
                l(4) =   1
     Q(r) pseudized with 0 coefficients 


     PseudoPot. # 3 for W  read from file:
     C:\Users\ROG\.burai\.pseudopot/W.pbe-nsp-van.UPF
     MD5 check sum: bb4869ded537247882558ca8e5af5f09
     Pseudo is Ultrasoft + core correction, Zval = 14.0
     Generated by new atomic code, or converted to UPF format
     Using radial grid of  923 points,  6 beta functions with: 
                l(1) =   0
                l(2) =   0
                l(3) =   1
                l(4) =   1
                l(5) =   2
                l(6) =   2
     Q(r) pseudized with  6 coefficients,  rinner =    1.000   1.000   1.000
                                                       1.000   1.000

     atomic species   valence    mass     pseudopotential
        Sn            14.00   118.71000     Sn( 1.00)
        Se             6.00    78.96000     Se( 1.00)
        W             14.00   183.84000     W ( 1.00)

     Starting magnetic structure 
     atomic species   magnetization
        Sn           0.000
        Se           0.000
        W            0.200

     12 Sym. Ops. (no inversion) found ( 6 have fractional translation)



   Cartesian axes

     site n.     atom                  positions (alat units)
         1           Sn  tau(   1) = (  -0.0000006   0.5773501   3.1431600  )
         2           Se  tau(   2) = (   0.5000003   0.2886747   2.6531705  )
         3           Se  tau(   3) = (  -0.0000006   0.5773501   1.5377093  )
         4           Se  tau(   4) = (   0.5000003   0.2886747   3.6331491  )
         5           Se  tau(   5) = (  -0.0000006   0.5773501   0.5577306  )
         6           W   tau(   6) = (   0.5000003   0.2886747   1.0477201  )

     number of k points=     4  gaussian smearing, width (Ry)=  0.0100
                       cart. coord. in units 2pi/alat
        k(    1) = (   0.0000000   0.0000000   0.0000000), wk =   0.1250000
        k(    2) = (   0.0000000   0.0000000  -0.1193066), wk =   0.1250000
        k(    3) = (   0.0000000  -0.5773503   0.0000000), wk =   0.3750000
        k(    4) = (   0.0000000  -0.5773503  -0.1193066), wk =   0.3750000

     Dense  grid:   117381 G-vectors     FFT dimensions: (  40,  40, 180)

     Smooth grid:    34761 G-vectors     FFT dimensions: (  27,  27, 120)

     Estimated max dynamical RAM per process >      78.50MB

     Estimated total allocated dynamical RAM >     157.01MB
     Generating pointlists ...
     new r_m :   0.3124 (alat units)  1.8843 (a.u.) for type    1
     new r_m :   0.3124 (alat units)  1.8843 (a.u.) for type    2
     new r_m :   0.3124 (alat units)  1.8843 (a.u.) for type    3

     Initial potential from superposition of free atoms

     starting charge   51.99782, renormalised to   52.00000
     Starting wfc are   38 randomized atomic wfcs

     total cpu time spent up to now is        4.7 secs

     Self-consistent Calculation

     iteration #  1     ecut=    47.07 Ry     beta=0.40
     Davidson diagonalization with overlap
     ethr =  1.00E-02,  avg # of iterations =  2.8

     Threshold (ethr) on eigenvalues was too large:
     Diagonalizing with lowered threshold

     Davidson diagonalization with overlap
     ethr =  4.34E-04,  avg # of iterations =  2.6

     total cpu time spent up to now is        9.9 secs

     total energy              =    -404.89297945 Ry
     Harris-Foulkes estimate   =    -404.91902082 Ry
     estimated scf accuracy    <       0.22641613 Ry

     total magnetization       =     0.03 Bohr mag/cell
     absolute magnetization    =     0.57 Bohr mag/cell

     iteration #  2     ecut=    47.07 Ry     beta=0.40
     Davidson diagonalization with overlap
     ethr =  4.35E-04,  avg # of iterations =  3.1

     total cpu time spent up to now is       12.9 secs

     total energy              =    -404.86578618 Ry
     Harris-Foulkes estimate   =    -404.93267097 Ry
     estimated scf accuracy    <       0.26058898 Ry

     total magnetization       =     0.26 Bohr mag/cell
     absolute magnetization    =     0.51 Bohr mag/cell

     iteration #  3     ecut=    47.07 Ry     beta=0.40
     Davidson diagonalization with overlap
     ethr =  4.35E-04,  avg # of iterations =  2.4

     total cpu time spent up to now is       15.8 secs

     total energy              =    -404.92473519 Ry
     Harris-Foulkes estimate   =    -404.93483672 Ry
     estimated scf accuracy    <       0.13920915 Ry

     total magnetization       =     0.14 Bohr mag/cell
     absolute magnetization    =     0.46 Bohr mag/cell

     iteration #  4     ecut=    47.07 Ry     beta=0.40
     Davidson diagonalization with overlap
     ethr =  2.68E-04,  avg # of iterations =  1.9

     total cpu time spent up to now is       18.6 secs

     total energy              =    -404.93881621 Ry
     Harris-Foulkes estimate   =    -404.93810557 Ry
     estimated scf accuracy    <       0.01225903 Ry

     total magnetization       =     0.07 Bohr mag/cell
     absolute magnetization    =     0.27 Bohr mag/cell

     iteration #  5     ecut=    47.07 Ry     beta=0.40
     Davidson diagonalization with overlap
     ethr =  2.36E-05,  avg # of iterations =  3.6

     total cpu time spent up to now is       21.7 secs

     total energy              =    -404.94034190 Ry
     Harris-Foulkes estimate   =    -404.94028083 Ry
     estimated scf accuracy    <       0.00395755 Ry

     total magnetization       =     0.08 Bohr mag/cell
     absolute magnetization    =     0.21 Bohr mag/cell

     iteration #  6     ecut=    47.07 Ry     beta=0.40
     Davidson diagonalization with overlap
     ethr =  7.61E-06,  avg # of iterations =  2.6

     total cpu time spent up to now is       24.6 secs

     total energy              =    -404.94090947 Ry
     Harris-Foulkes estimate   =    -404.94086622 Ry
     estimated scf accuracy    <       0.00023818 Ry

     total magnetization       =     0.11 Bohr mag/cell
     absolute magnetization    =     0.16 Bohr mag/cell

     iteration #  7     ecut=    47.07 Ry     beta=0.40
     Davidson diagonalization with overlap
     ethr =  4.58E-07,  avg # of iterations =  3.2

     total cpu time spent up to now is       27.7 secs

     total energy              =    -404.94102034 Ry
     Harris-Foulkes estimate   =    -404.94095857 Ry
     estimated scf accuracy    <       0.00005288 Ry

     total magnetization       =     0.13 Bohr mag/cell
     absolute magnetization    =     0.16 Bohr mag/cell

     iteration #  8     ecut=    47.07 Ry     beta=0.40
     Davidson diagonalization with overlap
     ethr =  1.02E-07,  avg # of iterations =  2.6

     total cpu time spent up to now is       30.7 secs

     total energy              =    -404.94108760 Ry
     Harris-Foulkes estimate   =    -404.94103844 Ry
     estimated scf accuracy    <       0.00001463 Ry

     total magnetization       =     0.16 Bohr mag/cell
     absolute magnetization    =     0.18 Bohr mag/cell

     iteration #  9     ecut=    47.07 Ry     beta=0.40
     Davidson diagonalization with overlap
     ethr =  2.81E-08,  avg # of iterations =  3.0

     total cpu time spent up to now is       33.9 secs

     total energy              =    -404.94114106 Ry
     Harris-Foulkes estimate   =    -404.94111249 Ry
     estimated scf accuracy    <       0.00000764 Ry

     total magnetization       =     0.21 Bohr mag/cell
     absolute magnetization    =     0.22 Bohr mag/cell

     iteration # 10     ecut=    47.07 Ry     beta=0.40
     Davidson diagonalization with overlap
     ethr =  1.47E-08,  avg # of iterations =  2.0

     total cpu time spent up to now is       36.8 secs

     total energy              =    -404.94106365 Ry
     Harris-Foulkes estimate   =    -404.94114860 Ry
     estimated scf accuracy    <       0.00000799 Ry

     total magnetization       =     0.24 Bohr mag/cell
     absolute magnetization    =     0.25 Bohr mag/cell

     iteration # 11     ecut=    47.07 Ry     beta=0.40
     Davidson diagonalization with overlap
     ethr =  1.47E-08,  avg # of iterations =  2.5

     total cpu time spent up to now is       39.8 secs

     total energy              =    -404.94068476 Ry
     Harris-Foulkes estimate   =    -404.94108828 Ry
     estimated scf accuracy    <       0.00000597 Ry

     total magnetization       =     0.19 Bohr mag/cell
     absolute magnetization    =     0.19 Bohr mag/cell

     iteration # 12     ecut=    47.07 Ry     beta=0.40
     Davidson diagonalization with overlap
     ethr =  1.15E-08,  avg # of iterations =  4.1

     Magnetic moment per site:
     atom:    1    charge:   10.9950    magn:   -0.0045    constr:    0.0000
     atom:    2    charge:    3.7292    magn:   -0.0029    constr:    0.0000
     atom:    3    charge:    3.6679    magn:   -0.0009    constr:    0.0000
     atom:    4    charge:    3.7292    magn:   -0.0029    constr:    0.0000
     atom:    5    charge:    3.6679    magn:   -0.0009    constr:    0.0000
     atom:    6    charge:   10.5951    magn:    0.0012    constr:    0.0000

     total cpu time spent up to now is       43.2 secs

     End of self-consistent calculation

 ------ SPIN UP ------------


          k = 0.0000 0.0000 0.0000 (  4411 PWs)   bands (ev):

   -62.7558 -27.0707 -27.0707 -26.9976 -11.2111 -11.1727 -11.1727 -11.0784
   -11.0784  -6.5886  -4.6556  -4.0803  -2.8063   3.2129   4.2436   7.4151
     7.9358   7.9358   9.4435   9.4902   9.4903  10.8144  10.9322  10.9322
    11.9993  11.9994  13.8717  14.3698  14.3699  14.7932  14.7933

          k = 0.0000 0.0000-0.1193 (  4352 PWs)   bands (ev):

   -62.7557 -27.0707 -27.0706 -26.9975 -11.2110 -11.1727 -11.1727 -11.0784
   -11.0784  -6.5885  -4.6601  -4.0720  -2.8119   3.3064   4.0841   7.7685
     7.9358   7.9358   8.9312   9.4902   9.4903  10.9324  10.9324  11.0470
    11.9991  11.9991  13.8968  14.3698  14.3698  14.7935  14.7935

          k = 0.0000-0.5774 0.0000 (  4330 PWs)   bands (ev):

   -62.7383 -27.4244 -27.1529 -26.9223 -11.4042 -11.3516 -11.1343 -11.0083
   -10.8806  -3.3350  -2.2236  -1.9210  -1.2554   1.0780   3.8995   4.3410
     5.3962   5.9026   6.3435   7.4754   7.9798   8.9405   9.8085   9.9768
    10.3013  10.5541  11.3540  13.3393  13.5706  14.1717  15.2918

          k = 0.0000-0.5774-0.1193 (  4336 PWs)   bands (ev):

   -62.7383 -27.4244 -27.1529 -26.9223 -11.4042 -11.3516 -11.1344 -11.0083
   -10.8806  -3.3349  -2.2244  -1.9201  -1.2556   1.0782   3.8929   4.3507
     5.3539   6.0261   6.2605   7.4749   7.9808   8.9075   9.8331   9.9723
    10.3054  10.5587  11.3823  13.3359  13.5710  14.1561  15.2064

 ------ SPIN DOWN ----------


          k = 0.0000 0.0000 0.0000 (  4411 PWs)   bands (ev):

   -62.7548 -27.0690 -27.0689 -26.9948 -11.2126 -11.1745 -11.1745 -11.0797
   -11.0797  -6.5914  -4.6581  -4.0833  -2.8097   3.2074   4.2421   7.4121
     7.9361   7.9361   9.4413   9.4917   9.4918  10.8168  10.9293  10.9293
    11.9961  11.9961  13.8677  14.3688  14.3689  14.7907  14.7907

          k = 0.0000 0.0000-0.1193 (  4352 PWs)   bands (ev):

   -62.7548 -27.0689 -27.0689 -26.9947 -11.2126 -11.1745 -11.1745 -11.0796
   -11.0796  -6.5913  -4.6625  -4.0750  -2.8153   3.3003   4.0831   7.7653
     7.9361   7.9361   8.9293   9.4917   9.4918  10.9295  10.9295  11.0495
    11.9958  11.9958  13.8924  14.3688  14.3688  14.7910  14.7910

          k = 0.0000-0.5774 0.0000 (  4330 PWs)   bands (ev):

   -62.7373 -27.4226 -27.1511 -26.9195 -11.4055 -11.3534 -11.1356 -11.0097
   -10.8822  -3.3372  -2.2266  -1.9240  -1.2579   1.0739   3.8982   4.3367
     5.3944   5.8989   6.3426   7.4760   7.9764   8.9398   9.8080   9.9738
    10.2996  10.5502  11.3448  13.3346  13.5729  14.1735  15.2920

          k = 0.0000-0.5774-0.1193 (  4336 PWs)   bands (ev):

   -62.7373 -27.4226 -27.1511 -26.9195 -11.4055 -11.3534 -11.1356 -11.0097
   -10.8822  -3.3371  -2.2274  -1.9230  -1.2581   1.0742   3.8915   4.3465
     5.3519   6.0218   6.2604   7.4755   7.9774   8.9065   9.8329   9.9693
    10.3036  10.5549  11.3730  13.3313  13.5733  14.1579  15.2065

     the Fermi energy is    11.4055 ev

!    total energy              =    -404.94101055 Ry
     Harris-Foulkes estimate   =    -404.94100903 Ry
     estimated scf accuracy    <       0.00000051 Ry

     The total energy is the sum of the following terms:

     one-electron contribution =    -216.28098710 Ry
     hartree contribution      =     137.01763516 Ry
     xc contribution           =    -116.63494220 Ry
     ewald contribution        =    -209.03890463 Ry
     smearing contrib. (-TS)   =      -0.00381177 Ry

     total magnetization       =    -0.03 Bohr mag/cell
     absolute magnetization    =     0.03 Bohr mag/cell

     convergence has been achieved in  12 iterations

     Writing output data file espresso.save

     init_run     :      5.72s CPU      4.07s WALL (       1 calls)
     electrons    :     97.55s CPU     38.48s WALL (       1 calls)

     Called by init_run:
     wfcinit      :      1.42s CPU      0.54s WALL (       1 calls)
     potinit      :      1.28s CPU      0.82s WALL (       1 calls)

     Called by electrons:
     c_bands      :     24.69s CPU     17.36s WALL (      13 calls)
     sum_band     :     53.33s CPU     13.34s WALL (      13 calls)
     v_of_rho     :      7.27s CPU      2.26s WALL (      13 calls)
     newd         :     13.11s CPU      5.57s WALL (      13 calls)
     mix_rho      :      0.38s CPU      0.27s WALL (      13 calls)

     Called by c_bands:
     init_us_2    :      0.25s CPU      0.38s WALL (     216 calls)
     cegterg      :     24.12s CPU     16.65s WALL (     104 calls)

     Called by sum_band:
     sum_band:bec :      0.00s CPU      0.02s WALL (     104 calls)
     addusdens    :     48.11s CPU     10.83s WALL (      13 calls)

     Called by *egterg:
     h_psi        :     20.45s CPU      9.05s WALL (     404 calls)
     s_psi        :      0.81s CPU      0.90s WALL (     404 calls)
     g_psi        :      0.06s CPU      0.05s WALL (     292 calls)
     cdiaghg      :      1.30s CPU      3.89s WALL (     388 calls)

     Called by h_psi:
     h_psi:pot    :     20.33s CPU      8.94s WALL (     404 calls)
     h_psi:calbec :      1.28s CPU      1.01s WALL (     404 calls)
     vloc_psi     :     18.02s CPU      7.03s WALL (     404 calls)
     add_vuspsi   :      1.02s CPU      0.91s WALL (     404 calls)

     General routines
     calbec       :      1.67s CPU      1.41s WALL (     508 calls)
     fft          :      2.47s CPU      1.08s WALL (     401 calls)
     ffts         :      0.16s CPU      0.04s WALL (      52 calls)
     fftw         :     18.44s CPU      6.19s WALL (   19090 calls)
     interpolate  :      0.66s CPU      0.25s WALL (      52 calls)

     Parallel routines
     fft_scatter  :      1.12s CPU      1.92s WALL (   19543 calls)

     PWSCF        :  1m43.92s CPU     0m43.32s WALL


   This run was terminated on:   9:53:16   8Jun2021            

=------------------------------------------------------------------------------=
   JOB DONE.
=------------------------------------------------------------------------------=
