
     Program PWSCF v.6.1 starts on  8Jun2021 at  9:56:25 

     This program is part of the open-source Quantum ESPRESSO suite
     for quantum simulation of materials; please cite
         "P. Giannozzi et al., J. Phys.:Condens. Matter 21 395502 (2009);
          URL http://www.quantum-espresso.org", 
     in publications or presentations arising from this work. More details at
     http://www.quantum-espresso.org/quote

     Parallel version (MPI & OpenMP), running on      16 processor cores
     Number of MPI processes:                 2
     Threads/MPI process:                     8
     R & G space division:  proc/nbgrp/npool/nimage =       2
     Reading input from espresso.in

     Current dimensions of program PWSCF are:
     Max number of different atomic species (ntypx) = 10
     Max number of k-points (npk) =  40000
     Max angular momentum in pseudopotentials (lmaxx) =  3
               file Sn.pbe-dn-rrkjus_psl.1.0.0.UPF: wavefunction(s)  5S 4D renormalized

     Subspace diagonalization in iterative solution of the eigenvalue problem:
     a serial algorithm will be used


     Parallelization info
     --------------------
     sticks:   dense  smooth     PW     G-vecs:    dense   smooth      PW
     Min         534     237     69                58688    17375    2797
     Max         535     238     70                58693    17386    2802
     Sum        1069     475    139               117381    34761    5599


     Title: 
     kpoint_4_4_4(SCF)                                                          


     bravais-lattice index     =            4
     lattice parameter (alat)  =       6.0325  a.u.
     unit-cell volume          =     796.7448 (a.u.)^3
     number of atoms/cell      =            6
     number of atomic types    =            3
     number of electrons       =        52.00
     number of Kohn-Sham states=           31
     kinetic-energy cutoff     =      47.0743  Ry
     charge density cutoff     =     423.6680  Ry
     convergence threshold     =      1.0E-06
     mixing beta               =       0.4000
     number of iterations used =            8  plain     mixing
     Exchange-correlation      =  SLA  PW   PBE  PBE ( 1  4  3  4 0 0)

     celldm(1)=   6.032459  celldm(2)=   0.000000  celldm(3)=   4.190882
     celldm(4)=   0.000000  celldm(5)=   0.000000  celldm(6)=   0.000000

     crystal axes: (cart. coord. in units of alat)
               a(1) = (   1.000000   0.000000   0.000000 )  
               a(2) = (  -0.500000   0.866025   0.000000 )  
               a(3) = (   0.000000   0.000000   4.190882 )  

     reciprocal axes: (cart. coord. in units 2 pi/alat)
               b(1) = (  1.000000  0.577350 -0.000000 )  
               b(2) = (  0.000000  1.154701  0.000000 )  
               b(3) = (  0.000000 -0.000000  0.238613 )  


     PseudoPot. # 1 for Sn read from file:
     C:\Users\ROG\.burai\.pseudopot/Sn.pbe-dn-rrkjus_psl.1.0.0.UPF
     MD5 check sum: 9f7ad82915168e737b3f6a04b7e1f5ac
     Pseudo is Ultrasoft + core correction, Zval = 14.0
     Generated using "atomic" code by A. Dal Corso  v.5.1.2
     Using radial grid of 1243 points,  6 beta functions with: 
                l(1) =   0
                l(2) =   0
                l(3) =   1
                l(4) =   1
                l(5) =   2
                l(6) =   2
     Q(r) pseudized with 0 coefficients 


     PseudoPot. # 2 for Se read from file:
     C:\Users\ROG\.burai\.pseudopot/Se.pbe-n-rrkjus_psl.1.0.0.UPF
     MD5 check sum: 5f5e5c15c95449acb3b45b44a6529d2d
     Pseudo is Ultrasoft + core correction, Zval =  6.0
     Generated using "atomic" code by A. Dal Corso  v.5.1.2
     Using radial grid of 1211 points,  4 beta functions with: 
                l(1) =   0
                l(2) =   0
                l(3) =   1
                l(4) =   1
     Q(r) pseudized with 0 coefficients 


     PseudoPot. # 3 for W  read from file:
     C:\Users\ROG\.burai\.pseudopot/W.pbe-nsp-van.UPF
     MD5 check sum: bb4869ded537247882558ca8e5af5f09
     Pseudo is Ultrasoft + core correction, Zval = 14.0
     Generated by new atomic code, or converted to UPF format
     Using radial grid of  923 points,  6 beta functions with: 
                l(1) =   0
                l(2) =   0
                l(3) =   1
                l(4) =   1
                l(5) =   2
                l(6) =   2
     Q(r) pseudized with  6 coefficients,  rinner =    1.000   1.000   1.000
                                                       1.000   1.000

     atomic species   valence    mass     pseudopotential
        Sn            14.00   118.71000     Sn( 1.00)
        Se             6.00    78.96000     Se( 1.00)
        W             14.00   183.84000     W ( 1.00)

     Starting magnetic structure 
     atomic species   magnetization
        Sn           0.000
        Se           0.000
        W            0.200

     12 Sym. Ops. (no inversion) found ( 6 have fractional translation)



   Cartesian axes

     site n.     atom                  positions (alat units)
         1           Sn  tau(   1) = (  -0.0000006   0.5773501   3.1431600  )
         2           Se  tau(   2) = (   0.5000003   0.2886747   2.6531705  )
         3           Se  tau(   3) = (  -0.0000006   0.5773501   1.5377093  )
         4           Se  tau(   4) = (   0.5000003   0.2886747   3.6331491  )
         5           Se  tau(   5) = (  -0.0000006   0.5773501   0.5577306  )
         6           W   tau(   6) = (   0.5000003   0.2886747   1.0477201  )

     number of k points=    12  gaussian smearing, width (Ry)=  0.0100
                       cart. coord. in units 2pi/alat
        k(    1) = (   0.0000000   0.0000000   0.0000000), wk =   0.0156250
        k(    2) = (   0.0000000   0.0000000   0.0596533), wk =   0.0312500
        k(    3) = (   0.0000000   0.0000000  -0.1193066), wk =   0.0156250
        k(    4) = (   0.0000000   0.2886751   0.0000000), wk =   0.0937500
        k(    5) = (   0.0000000   0.2886751   0.0596533), wk =   0.1875000
        k(    6) = (   0.0000000   0.2886751  -0.1193066), wk =   0.0937500
        k(    7) = (   0.0000000  -0.5773503   0.0000000), wk =   0.0468750
        k(    8) = (   0.0000000  -0.5773503   0.0596533), wk =   0.0937500
        k(    9) = (   0.0000000  -0.5773503  -0.1193066), wk =   0.0468750
        k(   10) = (   0.2500000   0.4330127   0.0000000), wk =   0.0937500
        k(   11) = (   0.2500000   0.4330127   0.0596533), wk =   0.1875000
        k(   12) = (   0.2500000   0.4330127  -0.1193066), wk =   0.0937500

     Dense  grid:   117381 G-vectors     FFT dimensions: (  40,  40, 180)

     Smooth grid:    34761 G-vectors     FFT dimensions: (  27,  27, 120)

     Estimated max dynamical RAM per process >      94.95MB

     Estimated total allocated dynamical RAM >     189.90MB
     Generating pointlists ...
     new r_m :   0.3124 (alat units)  1.8843 (a.u.) for type    1
     new r_m :   0.3124 (alat units)  1.8843 (a.u.) for type    2
     new r_m :   0.3124 (alat units)  1.8843 (a.u.) for type    3

     Initial potential from superposition of free atoms

     starting charge   51.99782, renormalised to   52.00000
     Starting wfc are   38 randomized atomic wfcs

     total cpu time spent up to now is        5.8 secs

     Self-consistent Calculation

     iteration #  1     ecut=    47.07 Ry     beta=0.40
     Davidson diagonalization with overlap
     ethr =  1.00E-02,  avg # of iterations =  2.6

     Threshold (ethr) on eigenvalues was too large:
     Diagonalizing with lowered threshold

     Davidson diagonalization with overlap
     ethr =  4.68E-04,  avg # of iterations =  1.7

     total cpu time spent up to now is       16.7 secs

     total energy              =    -405.25031200 Ry
     Harris-Foulkes estimate   =    -405.29309768 Ry
     estimated scf accuracy    <       0.24522407 Ry

     total magnetization       =     0.01 Bohr mag/cell
     absolute magnetization    =     0.56 Bohr mag/cell

     iteration #  2     ecut=    47.07 Ry     beta=0.40
     Davidson diagonalization with overlap
     ethr =  4.72E-04,  avg # of iterations =  3.2

     total cpu time spent up to now is       23.3 secs

     total energy              =    -405.24195578 Ry
     Harris-Foulkes estimate   =    -405.29897454 Ry
     estimated scf accuracy    <       0.20695889 Ry

     total magnetization       =     0.17 Bohr mag/cell
     absolute magnetization    =     0.45 Bohr mag/cell

     iteration #  3     ecut=    47.07 Ry     beta=0.40
     Davidson diagonalization with overlap
     ethr =  3.98E-04,  avg # of iterations =  2.7

     total cpu time spent up to now is       29.3 secs

     total energy              =    -405.29820478 Ry
     Harris-Foulkes estimate   =    -405.29921002 Ry
     estimated scf accuracy    <       0.07578950 Ry

     total magnetization       =     0.01 Bohr mag/cell
     absolute magnetization    =     0.35 Bohr mag/cell

     iteration #  4     ecut=    47.07 Ry     beta=0.40
     Davidson diagonalization with overlap
     ethr =  1.46E-04,  avg # of iterations =  2.0

     total cpu time spent up to now is       34.7 secs

     total energy              =    -405.30393915 Ry
     Harris-Foulkes estimate   =    -405.30339175 Ry
     estimated scf accuracy    <       0.01012842 Ry

     total magnetization       =     0.00 Bohr mag/cell
     absolute magnetization    =     0.21 Bohr mag/cell

     iteration #  5     ecut=    47.07 Ry     beta=0.40
     Davidson diagonalization with overlap
     ethr =  1.95E-05,  avg # of iterations =  3.5

     total cpu time spent up to now is       41.4 secs

     total energy              =    -405.30620988 Ry
     Harris-Foulkes estimate   =    -405.30634889 Ry
     estimated scf accuracy    <       0.00160420 Ry

     total magnetization       =     0.01 Bohr mag/cell
     absolute magnetization    =     0.09 Bohr mag/cell

     iteration #  6     ecut=    47.07 Ry     beta=0.40
     Davidson diagonalization with overlap
     ethr =  3.08E-06,  avg # of iterations =  2.8

     total cpu time spent up to now is       47.4 secs

     total energy              =    -405.30649065 Ry
     Harris-Foulkes estimate   =    -405.30644085 Ry
     estimated scf accuracy    <       0.00022786 Ry

     total magnetization       =     0.00 Bohr mag/cell
     absolute magnetization    =     0.06 Bohr mag/cell

     iteration #  7     ecut=    47.07 Ry     beta=0.40
     Davidson diagonalization with overlap
     ethr =  4.38E-07,  avg # of iterations =  2.4

     total cpu time spent up to now is       53.3 secs

     total energy              =    -405.30656923 Ry
     Harris-Foulkes estimate   =    -405.30652966 Ry
     estimated scf accuracy    <       0.00003983 Ry

     total magnetization       =     0.00 Bohr mag/cell
     absolute magnetization    =     0.04 Bohr mag/cell

     iteration #  8     ecut=    47.07 Ry     beta=0.40
     Davidson diagonalization with overlap
     ethr =  7.66E-08,  avg # of iterations =  3.0

     total cpu time spent up to now is       59.7 secs

     total energy              =    -405.30659388 Ry
     Harris-Foulkes estimate   =    -405.30658140 Ry
     estimated scf accuracy    <       0.00000480 Ry

     total magnetization       =     0.00 Bohr mag/cell
     absolute magnetization    =     0.02 Bohr mag/cell

     iteration #  9     ecut=    47.07 Ry     beta=0.40
     Davidson diagonalization with overlap
     ethr =  9.23E-09,  avg # of iterations =  3.2

     total cpu time spent up to now is       66.4 secs

     total energy              =    -405.30659889 Ry
     Harris-Foulkes estimate   =    -405.30659868 Ry
     estimated scf accuracy    <       0.00000340 Ry

     total magnetization       =     0.00 Bohr mag/cell
     absolute magnetization    =     0.01 Bohr mag/cell

     iteration # 10     ecut=    47.07 Ry     beta=0.40
     Davidson diagonalization with overlap
     ethr =  6.54E-09,  avg # of iterations =  2.5

     Magnetic moment per site:
     atom:    1    charge:   10.9437    magn:    0.0000    constr:    0.0000
     atom:    2    charge:    3.7199    magn:    0.0000    constr:    0.0000
     atom:    3    charge:    3.6571    magn:   -0.0004    constr:    0.0000
     atom:    4    charge:    3.7199    magn:    0.0000    constr:    0.0000
     atom:    5    charge:    3.6571    magn:   -0.0004    constr:    0.0000
     atom:    6    charge:   10.5888    magn:    0.0007    constr:    0.0000

     total cpu time spent up to now is       72.2 secs

     End of self-consistent calculation

 ------ SPIN UP ------------


          k = 0.0000 0.0000 0.0000 (  4411 PWs)   bands (ev):

   -62.5840 -26.9912 -26.7973 -26.7973 -11.3468 -11.3468 -11.2656 -11.1559
   -11.1559  -6.5613  -4.5093  -4.0887  -2.6994   3.0507   4.3808   7.2758
     8.2021   8.2021   9.4494   9.6252   9.6253  10.8642  10.9454  10.9455
    11.9959  11.9960  13.8793  14.5189  14.5189  14.9732  14.9733

          k = 0.0000 0.0000 0.0597 (  4417 PWs)   bands (ev):

   -62.5840 -26.9913 -26.7973 -26.7973 -11.3468 -11.3468 -11.2655 -11.1559
   -11.1559  -6.5612  -4.5128  -4.0832  -2.7025   3.0843   4.3087   7.4304
     8.2021   8.2021   9.2102   9.6252   9.6253  10.9455  10.9456  10.9922
    11.9958  11.9958  13.8928  14.5188  14.5189  14.9734  14.9734

          k = 0.0000 0.0000-0.1193 (  4352 PWs)   bands (ev):

   -62.5840 -26.9912 -26.7973 -26.7972 -11.3468 -11.3468 -11.2655 -11.1559
   -11.1559  -6.5612  -4.5162  -4.0777  -2.7055   3.1210   4.2355   7.6155
     8.2021   8.2021   8.9611   9.6252   9.6253  10.9456  10.9457  11.0973
    11.9957  11.9957  13.9064  14.5188  14.5189  14.9735  14.9736

          k = 0.0000 0.2887 0.0000 (  4349 PWs)   bands (ev):

   -62.5753 -26.9763 -26.9545 -26.8383 -11.4277 -11.3243 -11.2053 -11.1833
   -11.1649  -5.4207  -3.4790  -2.9816  -2.2977   3.6380   5.2175   6.0203
     6.4212   6.9407   7.5819   8.4295   8.6422   9.1536   9.1895   9.8966
    10.1171  11.1737  13.3243  13.9665  14.0048  14.5160  14.7571

          k = 0.0000 0.2887 0.0597 (  4359 PWs)   bands (ev):

   -62.5753 -26.9763 -26.9545 -26.8383 -11.4277 -11.3244 -11.2053 -11.1834
   -11.1649  -5.4206  -3.4817  -2.9756  -2.3014   3.6481   5.2051   5.9913
     6.3972   7.0104   7.5718   8.4293   8.7183   9.1588   9.1844   9.7453
    10.1549  11.1735  13.4434  13.9273  14.0058  14.4035  14.8222

          k = 0.0000 0.2887-0.1193 (  4358 PWs)   bands (ev):

   -62.5753 -26.9763 -26.9545 -26.8383 -11.4277 -11.3244 -11.2053 -11.1834
   -11.1650  -5.4206  -3.4845  -2.9696  -2.3052   3.6584   5.1921   5.9638
     6.3802   7.0733   7.5600   8.4292   8.8171   9.1695   9.1739   9.5916
    10.1742  11.1734  13.6233  13.8259  14.0067  14.3151  14.8633

          k = 0.0000-0.5774 0.0000 (  4330 PWs)   bands (ev):

   -62.5667 -27.1495 -26.9174 -26.8790 -11.5111 -11.4739 -11.2107 -11.0683
   -11.0591  -3.3248  -2.0912  -1.8069  -1.2937   1.0993   4.0778   4.3483
     5.5293   5.7420   6.4599   7.6209   8.0089   8.9928   9.9856  10.1325
    10.1452  10.5450  11.2530  13.3373  13.8753  14.3437  15.3929

          k = 0.0000-0.5774 0.0597 (  4330 PWs)   bands (ev):

   -62.5667 -27.1495 -26.9174 -26.8790 -11.5111 -11.4739 -11.2107 -11.0683
   -11.0591  -3.3247  -2.0917  -1.8062  -1.2939   1.0994   4.0713   4.3568
     5.4770   5.8166   6.4364   7.6206   8.0096   8.9732   9.9896  10.1290
    10.1613  10.5486  11.2644  13.3355  13.8756  14.3309  15.3406

          k = 0.0000-0.5774-0.1193 (  4336 PWs)   bands (ev):

   -62.5667 -27.1495 -26.9174 -26.8790 -11.5111 -11.4739 -11.2107 -11.0683
   -11.0591  -3.3247  -2.0922  -1.8055  -1.2941   1.0996   4.0652   4.3651
     5.4403   5.8791   6.4095   7.6202   8.0102   8.9545   9.9921  10.1256
    10.1781  10.5522  11.2761  13.3337  13.8758  14.3180  15.2888

          k = 0.2500 0.4330 0.0000 (  4351 PWs)   bands (ev):

   -62.5667 -27.0856 -26.9455 -26.9175 -11.4276 -11.3947 -11.2587 -11.1872
   -11.0654  -3.4968  -2.1331  -1.7835  -1.3836   2.3643   4.9363   5.0517
     5.4066   5.4849   6.0059   6.7987   7.3405   7.5489   8.1095   9.2771
    10.1528  10.4695  12.5367  13.5782  14.2236  14.3271  14.5199

          k = 0.2500 0.4330 0.0597 (  4344 PWs)   bands (ev):

   -62.5667 -27.0856 -26.9455 -26.9175 -11.4276 -11.3947 -11.2587 -11.1872
   -11.0654  -3.4968  -2.1340  -1.7817  -1.3846   2.3643   4.9419   5.0514
     5.4043   5.4813   6.0010   6.7845   7.3776   7.5415   8.1095   9.2810
    10.1154  10.4749  12.5658  13.5812  14.1826  14.3181  14.5785

          k = 0.2500 0.4330-0.1193 (  4346 PWs)   bands (ev):

   -62.5667 -27.0856 -26.9455 -26.9175 -11.4276 -11.3947 -11.2587 -11.1872
   -11.0654  -3.4968  -2.1349  -1.7800  -1.3855   2.3644   4.9476   5.0512
     5.4021   5.4776   5.9960   6.7725   7.4157   7.5315   8.1093   9.2858
    10.0779  10.4796  12.5950  13.5836  14.1509  14.3124  14.6238

 ------ SPIN DOWN ----------


          k = 0.0000 0.0000 0.0000 (  4411 PWs)   bands (ev):

   -62.5836 -26.9898 -26.7965 -26.7965 -11.3468 -11.3468 -11.2655 -11.1559
   -11.1559  -6.5612  -4.5106  -4.0886  -2.7012   3.0508   4.3804   7.2757
     8.2024   8.2024   9.4485   9.6261   9.6262  10.8658  10.9455  10.9455
    11.9960  11.9960  13.8795  14.5183  14.5184  14.9721  14.9721

          k = 0.0000 0.0000 0.0597 (  4417 PWs)   bands (ev):

   -62.5836 -26.9898 -26.7965 -26.7965 -11.3468 -11.3468 -11.2655 -11.1559
   -11.1559  -6.5612  -4.5141  -4.0831  -2.7042   3.0844   4.3082   7.4304
     8.2024   8.2024   9.2093   9.6261   9.6261  10.9456  10.9456  10.9938
    11.9959  11.9959  13.8929  14.5183  14.5184  14.9722  14.9722

          k = 0.0000 0.0000-0.1193 (  4352 PWs)   bands (ev):

   -62.5836 -26.9898 -26.7965 -26.7965 -11.3468 -11.3468 -11.2655 -11.1558
   -11.1558  -6.5611  -4.5175  -4.0777  -2.7072   3.1212   4.2351   7.6157
     8.2024   8.2024   8.9601   9.6261   9.6261  10.9457  10.9457  11.0989
    11.9958  11.9958  13.9064  14.5183  14.5184  14.9724  14.9724

          k = 0.0000 0.2887 0.0000 (  4349 PWs)   bands (ev):

   -62.5750 -26.9755 -26.9531 -26.8376 -11.4277 -11.3243 -11.2053 -11.1833
   -11.1649  -5.4206  -3.4803  -2.9815  -2.2994   3.6381   5.2172   6.0204
     6.4206   6.9404   7.5819   8.4300   8.6420   9.1535   9.1895   9.8958
    10.1182  11.1737  13.3244  13.9666  14.0045  14.5167  14.7572

          k = 0.0000 0.2887 0.0597 (  4359 PWs)   bands (ev):

   -62.5750 -26.9756 -26.9531 -26.8376 -11.4277 -11.3243 -11.2053 -11.1833
   -11.1649  -5.4206  -3.4831  -2.9756  -2.3031   3.6482   5.2049   5.9914
     6.3966   7.0101   7.5719   8.4298   8.7183   9.1587   9.1844   9.7445
    10.1559  11.1736  13.4435  13.9275  14.0055  14.4041  14.8224

          k = 0.0000 0.2887-0.1193 (  4358 PWs)   bands (ev):

   -62.5750 -26.9756 -26.9531 -26.8376 -11.4277 -11.3243 -11.2053 -11.1833
   -11.1649  -5.4205  -3.4858  -2.9696  -2.3069   3.6585   5.1918   5.9639
     6.3796   7.0730   7.5601   8.4297   8.8173   9.1693   9.1739   9.5906
    10.1752  11.1735  13.6235  13.8261  14.0064  14.3156  14.8635

          k = 0.0000-0.5774 0.0000 (  4330 PWs)   bands (ev):

   -62.5664 -27.1487 -26.9160 -26.8782 -11.5111 -11.4739 -11.2107 -11.0683
   -11.0590  -3.3247  -2.0927  -1.8084  -1.2936   1.0994   4.0771   4.3484
     5.5283   5.7420   6.4600   7.6213   8.0090   8.9923   9.9856  10.1310
    10.1452  10.5451  11.2532  13.3374  13.8766  14.3447  15.3513

          k = 0.0000-0.5774 0.0597 (  4330 PWs)   bands (ev):

   -62.5664 -27.1487 -26.9160 -26.8782 -11.5111 -11.4739 -11.2107 -11.0682
   -11.0591  -3.3247  -2.0932  -1.8077  -1.2938   1.0995   4.0707   4.3569
     5.4762   5.8165   6.4365   7.6210   8.0097   8.9728   9.9897  10.1275
    10.1613  10.5487  11.2646  13.3355  13.8769  14.3319  15.3197

          k = 0.0000-0.5774-0.1193 (  4336 PWs)   bands (ev):

   -62.5664 -27.1487 -26.9160 -26.8783 -11.5111 -11.4739 -11.2107 -11.0683
   -11.0591  -3.3247  -2.0937  -1.8070  -1.2940   1.0996   4.0645   4.3652
     5.4396   5.8789   6.4095   7.6206   8.0103   8.9541   9.9922  10.1241
    10.1780  10.5523  11.2762  13.3338  13.8771  14.3192  15.2985

          k = 0.2500 0.4330 0.0000 (  4351 PWs)   bands (ev):

   -62.5664 -27.0848 -26.9447 -26.9161 -11.4276 -11.3947 -11.2586 -11.1872
   -11.0654  -3.4968  -2.1347  -1.7850  -1.3836   2.3643   4.9358   5.0517
     5.4067   5.4846   6.0059   6.7984   7.3400   7.5480   8.1096   9.2766
    10.1528  10.4696  12.5369  13.5790  14.2238  14.3283  14.5203

          k = 0.2500 0.4330 0.0597 (  4344 PWs)   bands (ev):

   -62.5664 -27.0848 -26.9447 -26.9161 -11.4276 -11.3947 -11.2586 -11.1872
   -11.0654  -3.4967  -2.1356  -1.7833  -1.3845   2.3644   4.9414   5.0515
     5.4044   5.4810   6.0011   6.7842   7.3771   7.5407   8.1096   9.2804
    10.1154  10.4749  12.5660  13.5819  14.1828  14.3192  14.5789

          k = 0.2500 0.4330-0.1193 (  4346 PWs)   bands (ev):

   -62.5664 -27.0848 -26.9447 -26.9161 -11.4276 -11.3947 -11.2586 -11.1872
   -11.0654  -3.4967  -2.1365  -1.7815  -1.3854   2.3644   4.9472   5.0512
     5.4022   5.4772   5.9961   6.7722   7.4152   7.5307   8.1094   9.2853
    10.0779  10.4797  12.5952  13.5843  14.1511  14.3136  14.6242

     the Fermi energy is    11.3338 ev

!    total energy              =    -405.30659995 Ry
     Harris-Foulkes estimate   =    -405.30659993 Ry
     estimated scf accuracy    <       0.00000027 Ry

     The total energy is the sum of the following terms:

     one-electron contribution =    -216.84844725 Ry
     hartree contribution      =     137.17178811 Ry
     xc contribution           =    -116.58968682 Ry
     ewald contribution        =    -209.03890463 Ry
     smearing contrib. (-TS)   =      -0.00134936 Ry

     total magnetization       =     0.00 Bohr mag/cell
     absolute magnetization    =     0.00 Bohr mag/cell

     convergence has been achieved in  10 iterations

     Writing output data file espresso.save

     init_run     :      7.53s CPU      5.19s WALL (       1 calls)
     electrons    :    128.05s CPU     66.38s WALL (       1 calls)

     Called by init_run:
     wfcinit      :      3.28s CPU      1.64s WALL (       1 calls)
     potinit      :      1.14s CPU      0.82s WALL (       1 calls)

     Called by electrons:
     c_bands      :     61.17s CPU     44.60s WALL (      11 calls)
     sum_band     :     50.41s CPU     15.25s WALL (      11 calls)
     v_of_rho     :      6.27s CPU      2.01s WALL (      11 calls)
     newd         :     11.05s CPU      4.61s WALL (      11 calls)
     mix_rho      :      0.47s CPU      0.26s WALL (      11 calls)

     Called by c_bands:
     init_us_2    :      1.09s CPU      0.92s WALL (     552 calls)
     cegterg      :     59.41s CPU     42.83s WALL (     264 calls)

     Called by sum_band:
     sum_band:bec :      0.00s CPU      0.06s WALL (     264 calls)
     addusdens    :     40.48s CPU      9.45s WALL (      11 calls)

     Called by *egterg:
     h_psi        :     48.73s CPU     23.91s WALL (     999 calls)
     s_psi        :      2.55s CPU      2.36s WALL (     999 calls)
     g_psi        :      0.03s CPU      0.09s WALL (     711 calls)
     cdiaghg      :      3.61s CPU      9.53s WALL (     951 calls)

     Called by h_psi:
     h_psi:pot    :     48.47s CPU     23.64s WALL (     999 calls)
     h_psi:calbec :      3.19s CPU      2.59s WALL (     999 calls)
     vloc_psi     :     43.05s CPU     18.65s WALL (     999 calls)
     add_vuspsi   :      2.23s CPU      2.39s WALL (     999 calls)

     General routines
     calbec       :      4.22s CPU      3.61s WALL (    1263 calls)
     fft          :      1.92s CPU      1.00s WALL (     339 calls)
     ffts         :      0.05s CPU      0.04s WALL (      44 calls)
     fftw         :     42.67s CPU     16.10s WALL (   48674 calls)
     interpolate  :      0.23s CPU      0.22s WALL (      44 calls)

     Parallel routines
     fft_scatter  :      3.50s CPU      4.33s WALL (   49057 calls)

     PWSCF        :  2m16.36s CPU     1m12.47s WALL


   This run was terminated on:   9:57:38   8Jun2021            

=------------------------------------------------------------------------------=
   JOB DONE.
=------------------------------------------------------------------------------=
