
     Program BANDS v.6.4.1 starts on  1May2020 at 23:47:32 

     This program is part of the open-source Quantum ESPRESSO suite
     for quantum simulation of materials; please cite
         "P. Giannozzi et al., J. Phys.:Condens. Matter 21 395502 (2009);
         "P. Giannozzi et al., J. Phys.:Condens. Matter 29 465901 (2017);
          URL http://www.quantum-espresso.org", 
     in publications or presentations arising from this work. More details at
     http://www.quantum-espresso.org/quote

     Parallel version (MPI & OpenMP), running on       4 processor cores
     Number of MPI processes:                 1
     Threads/MPI process:                     4

     MPI processes distributed on     1 nodes

     Reading data from directory:
     ./out/\Si_exc1.save\

     IMPORTANT: XC functional enforced from input :
     Exchange-correlation      = PBE ( 1  4  3  4 0 0)
     Any further DFT definition will be discarded
     Please, verify this is what you really want


     G-vector sticks info
     --------------------
     sticks:   dense  smooth     PW     G-vecs:    dense   smooth      PW
     Sum         295     295    109                 3287     3287     701

     high-symmetry point:  0.5000 0.5000 0.5000   x coordinate   0.0000
     high-symmetry point:  0.0000 0.0000 0.0000   x coordinate   0.8660
     high-symmetry point:  0.0000 0.0000 1.0000   x coordinate   1.8660
     high-symmetry point:  0.0000 1.0000 1.0000   x coordinate   2.8660
     high-symmetry point:  0.0000 0.0000 0.0000   x coordinate   4.2802

     Plottable bands (eV) written to file bands.dat.gnu
     Bands written to file bands.dat

 **************************************************************************

                    xk=(   0.50000,   0.50000,   0.50000  )

     zone border point and non-symmorphic group 
     symmetry decomposition not available

 **************************************************************************

 **************************************************************************

                    xk=(   0.40000,   0.40000,   0.40000  ) #(kpoint)

     point group C_3v (3m)  
     there are  3 classes
     the character table:

       E     2C3   3s_v 
A_1    1.00  1.00  1.00
A_2    1.00  1.00 -1.00
E      2.00 -1.00  0.00

     the symmetry operations in each class and the name of the first element:

     E        1
                                                                 
     2C3      2    3
                                                                 
     3s_v     4    5    6
                                                                 

     Band symmetry, C_3v (3m)   point group:

     e(  1 -  1) =     -3.78386  eV     1   --> A_1  L_1   #(NILAI ENERGI MIN)    
     e(  2 -  2) =      0.00105  eV     1   --> A_1  L_1       
     e(  3 -  4) =      5.11678  eV     2   --> E    L_3       
     e(  5 -  5) =      7.91862  eV     1   --> A_1  L_1       
     e(  6 -  7) =      9.66396  eV     2   --> E    L_3       
     e(  8 -  8) =     14.10350  eV     1   --> A_1  L_1   #(NILAI ENERGI MAX)    

 **************************************************************************

 **************************************************************************

                    xk=(   0.30000,   0.30000,   0.30000  )

     Band symmetry, C_3v (3m)   point group:

     e(  1 -  1) =     -4.53293  eV     1   --> A_1  L_1       
     e(  2 -  2) =      1.47701  eV     1   --> A_1  L_1       
     e(  3 -  4) =      5.32925  eV     2   --> E    L_3       
     e(  5 -  5) =      8.15420  eV     1   --> A_1  L_1       
     e(  6 -  7) =      9.78219  eV     2   --> E    L_3       
     e(  8 -  8) =     13.84437  eV     1   -->   ?

 **************************************************************************

 **************************************************************************

                    xk=(   0.20000,   0.20000,   0.20000  )

     Band symmetry, C_3v (3m)   point group:

     e(  1 -  1) =     -5.14891  eV     1   --> A_1  L_1       
     e(  2 -  2) =      3.25922  eV     1   --> A_1  L_1       
     e(  3 -  4) =      5.66328  eV     2   --> E    L_3       
     e(  5 -  5) =      8.50830  eV     1   --> A_1  L_1       
     e(  6 -  7) =      9.61202  eV     2   --> E    L_3       
     e(  8 -  8) =     12.34429  eV     1   --> A_1  L_1       

 **************************************************************************

 **************************************************************************

                    xk=(   0.10000,   0.10000,   0.10000  )

     Band symmetry, C_3v (3m)   point group:

     e(  1 -  1) =     -5.53547  eV     1   --> A_1  L_1       
     e(  2 -  2) =      5.11144  eV     1   --> A_1  L_1       
     e(  3 -  4) =      6.04290  eV     2   --> E    L_3       
     e(  5 -  5) =      8.84551  eV     1   --> A_1  L_1       
     e(  6 -  7) =      9.10461  eV     2   --> E    L_3       
     e(  8 -  8) =     10.60480  eV     1   --> A_1  L_1       

 **************************************************************************

 **************************************************************************

                    xk=(   0.00000,   0.00000,   0.00000  )

     point group O_h (m-3m) 
     there are 10 classes
     the character table:

       E     8C3   3C2   6C4   6C2'  i     8S6   3s_h  6S4   6s_d 
A_1g   1.00  1.00  1.00  1.00  1.00  1.00  1.00  1.00  1.00  1.00
A_2g   1.00  1.00  1.00 -1.00 -1.00  1.00  1.00  1.00 -1.00 -1.00
E_g    2.00 -1.00  2.00  0.00  0.00  2.00 -1.00  2.00  0.00  0.00
T_1g   3.00  0.00 -1.00  1.00 -1.00  3.00  0.00 -1.00  1.00 -1.00
T_2g   3.00  0.00 -1.00 -1.00  1.00  3.00  0.00 -1.00 -1.00  1.00
A_1u   1.00  1.00  1.00  1.00  1.00 -1.00 -1.00 -1.00 -1.00 -1.00
A_2u   1.00  1.00  1.00 -1.00 -1.00 -1.00 -1.00 -1.00  1.00  1.00
E_u    2.00 -1.00  2.00  0.00  0.00 -2.00  1.00 -2.00  0.00  0.00
T_1u   3.00  0.00 -1.00  1.00 -1.00 -3.00  0.00  1.00 -1.00  1.00
T_2u   3.00  0.00 -1.00 -1.00  1.00 -3.00  0.00  1.00  1.00 -1.00

     the symmetry operations in each class and the name of the first element:

     E        1
                                                                 
     8C3     17   19   20   18   24   21   22   23
                                                                 
     3C2      2    4    3
                                                                 
     6C4      7    8   15   16   12   11
                                                                 
     6C2'     5    6   14   13   10    9
                                                                 
     i       25
                                                                 
     8S6     41   43   44   42   48   45   46   47
                                                                 
     3s_h    26   28   27
                                                                 
     6S4     31   32   39   40   36   35
                                                                 
     6s_d    29   30   38   37   34   33
                                                                 

     Band symmetry, O_h (m-3m)  point group:

     e(  1 -  1) =     -5.66642  eV     1   --> A_1g G_1   G_1+
     e(  2 -  4) =      6.24044  eV     3   --> T_2g G_25' G_5+
     e(  5 -  7) =      8.81286  eV     3   --> T_1u G_15  G_4-
     e(  8 -  8) =      9.71583  eV     1   --> A_2u G_2'  G_2-

 **************************************************************************

 **************************************************************************

                    xk=(   0.00000,   0.00000,   0.10000  )

     point group C_4v (4mm) 
     there are  5 classes
     the character table:

       E     2C4   C2    2s_v  2s_d 
A_1    1.00  1.00  1.00  1.00  1.00
A_2    1.00  1.00  1.00 -1.00 -1.00
B_1    1.00 -1.00  1.00  1.00 -1.00
B_2    1.00 -1.00  1.00 -1.00  1.00
E      2.00  0.00 -2.00  0.00  0.00

     the symmetry operations in each class and the name of the first element:

     E        1
                                                                 
     2C4      3    4
                                                                 
     C2       2
                                                                 
     2s_v     5    6
                                                                 
     2s_d     7    8
                                                                 

     Band symmetry, C_4v (4mm)  point group:

     e(  1 -  1) =     -5.62264  eV     1   --> A_1  G_1 D_1   
     e(  2 -  2) =      5.96926  eV     1   --> B_2  G_4 D_2'  
     e(  3 -  4) =      6.06541  eV     2   --> E    G_5 D_5   
     e(  5 -  5) =      8.70892  eV     1   --> A_1  G_1 D_1   
     e(  6 -  7) =      9.04180  eV     2   --> E    G_5 D_5   
     e(  8 -  8) =      9.97698  eV     1   --> B_2  G_4 D_2'  

 **************************************************************************

 **************************************************************************

                    xk=(   0.00000,   0.00000,   0.20000  )

     Band symmetry, C_4v (4mm)  point group:

     e(  1 -  1) =     -5.49153  eV     1   --> A_1  G_1 D_1   
     e(  2 -  2) =      5.32543  eV     1   --> B_2  G_4 D_2'  
     e(  3 -  4) =      5.66603  eV     2   --> E    G_5 D_5   
     e(  5 -  5) =      8.43912  eV     1   --> A_1  G_1 D_1   
     e(  6 -  7) =      9.60216  eV     2   --> E    G_5 D_5   
     e(  8 -  8) =     10.51646  eV     1   --> B_2  G_4 D_2'  

 **************************************************************************

 **************************************************************************

                    xk=(   0.00000,   0.00000,   0.30000  )

     Band symmetry, C_4v (4mm)  point group:

     e(  1 -  1) =     -5.27390  eV     1   --> A_1  G_1 D_1   
     e(  2 -  2) =      4.52264  eV     1   --> B_2  G_4 D_2'  
     e(  3 -  4) =      5.20395  eV     2   --> E    G_5 D_5   
     e(  5 -  5) =      8.08620  eV     1   --> A_1  G_1 D_1   
     e(  6 -  7) =     10.32877  eV     2   --> E    G_5 D_5   
     e(  8 -  8) =     10.70776  eV     1   --> B_2  G_4 D_2'  

 **************************************************************************

 **************************************************************************

                    xk=(   0.00000,   0.00000,   0.40000  )

     Band symmetry, C_4v (4mm)  point group:

     e(  1 -  1) =     -4.97095  eV     1   --> A_1  G_1 D_1   
     e(  2 -  2) =      3.65795  eV     1   --> B_2  G_4 D_2'  
     e(  3 -  4) =      4.75604  eV     2   --> E    G_5 D_5   
     e(  5 -  5) =      7.72221  eV     1   --> A_1  G_1 D_1   
     e(  6 -  6) =     10.15886  eV     1   --> B_2  G_4 D_2'  
     e(  7 -  8) =     11.14112  eV     2   --> E    G_5 D_5   

 **************************************************************************

 **************************************************************************

                    xk=(   0.00000,   0.00000,   0.50000  )

     Band symmetry, C_4v (4mm)  point group:

     e(  1 -  1) =     -4.58454  eV     1   --> A_1  G_1 D_1   
     e(  2 -  2) =      2.76883  eV     1   --> B_2  G_4 D_2'  
     e(  3 -  4) =      4.35471  eV     2   --> E    G_5 D_5   
     e(  5 -  5) =      7.39239  eV     1   --> A_1  G_1 D_1   
     e(  6 -  6) =      9.39619  eV     1   --> B_2  G_4 D_2'  
     e(  7 -  8) =     12.00403  eV     2   --> E    G_5 D_5   

 **************************************************************************

 **************************************************************************

                    xk=(   0.00000,   0.00000,   0.60000  )

     Band symmetry, C_4v (4mm)  point group:

     e(  1 -  1) =     -4.11714  eV     1   --> A_1  G_1 D_1   
     e(  2 -  2) =      1.87370  eV     1   --> B_2  G_4 D_2'  
     e(  3 -  4) =      4.01530  eV     2   --> E    G_5 D_5   
     e(  5 -  5) =      7.12544  eV     1   --> A_1  G_1 D_1   
     e(  6 -  6) =      8.67594  eV     1   --> B_2  G_4 D_2'  
     e(  7 -  8) =     12.90037  eV     2   --> E    G_5 D_5   

 **************************************************************************

 **************************************************************************

                    xk=(   0.00000,   0.00000,   0.70000  )

     Band symmetry, C_4v (4mm)  point group:

     e(  1 -  1) =     -3.57227  eV     1   --> A_1  G_1 D_1   
     e(  2 -  2) =      0.98498  eV     1   --> B_2  G_4 D_2'  
     e(  3 -  4) =      3.74582  eV     2   --> E    G_5 D_5   
     e(  5 -  5) =      6.93857  eV     1   --> A_1  G_1 D_1   
     e(  6 -  6) =      8.06221  eV     1   --> B_2  G_4 D_2'  
     e(  7 -  8) =     13.82092  eV     2   --> E    G_5 D_5   

 **************************************************************************

 **************************************************************************

                    xk=(   0.00000,   0.00000,   0.80000  )

     Band symmetry, C_4v (4mm)  point group:

     e(  1 -  1) =     -2.95422  eV     1   --> A_1  G_1 D_1   
     e(  2 -  2) =      0.11503  eV     1   --> B_2  G_4 D_2'  
     e(  3 -  4) =      3.55078  eV     2   --> E    G_5 D_5   
     e(  5 -  5) =      6.84497  eV     1   --> A_1  G_1 D_1   
     e(  6 -  6) =      7.57328  eV     1   --> B_2  G_4 D_2'  
     e(  7 -  8) =     14.76171  eV     2   --> E    G_5 D_5   

 **************************************************************************

 **************************************************************************

                    xk=(   0.00000,   0.00000,   0.90000  )

     Band symmetry, C_4v (4mm)  point group:

     e(  1 -  1) =     -2.26869  eV     1   --> A_1  G_1 D_1   
     e(  2 -  2) =     -0.72467  eV     1   --> B_2  G_4 D_2'  
     e(  3 -  4) =      3.43294  eV     2   --> E    G_5 D_5   
     e(  5 -  5) =      6.85398  eV     1   --> A_1  G_1 D_1   
     e(  6 -  6) =      7.21142  eV     1   --> B_2  G_4 D_2'  
     e(  7 -  8) =     15.70272  eV     2   --> E    G_5 D_5   

 **************************************************************************

 **************************************************************************

                    xk=(   0.00000,   0.00000,   1.00000  )

     zone border point and non-symmorphic group 
     symmetry decomposition not available

 **************************************************************************

 **************************************************************************

                    xk=(   0.00000,   0.10000,   1.00000  )

     zone border point and non-symmorphic group 
     symmetry decomposition not available

 **************************************************************************

 **************************************************************************

                    xk=(   0.00000,   0.20000,   1.00000  )

     zone border point and non-symmorphic group 
     symmetry decomposition not available

 **************************************************************************

 **************************************************************************

                    xk=(   0.00000,   0.30000,   1.00000  )

     zone border point and non-symmorphic group 
     symmetry decomposition not available

 **************************************************************************

 **************************************************************************

                    xk=(   0.00000,   0.40000,   1.00000  )

     zone border point and non-symmorphic group 
     symmetry decomposition not available

 **************************************************************************

 **************************************************************************

                    xk=(   0.00000,   0.50000,   1.00000  )

     zone border point and non-symmorphic group 
     symmetry decomposition not available

 **************************************************************************

 **************************************************************************

                    xk=(   0.00000,   0.60000,   1.00000  )

     zone border point and non-symmorphic group 
     symmetry decomposition not available

 **************************************************************************

 **************************************************************************

                    xk=(   0.00000,   0.70000,   1.00000  )

     zone border point and non-symmorphic group 
     symmetry decomposition not available

 **************************************************************************

 **************************************************************************

                    xk=(   0.00000,   0.80000,   1.00000  )

     zone border point and non-symmorphic group 
     symmetry decomposition not available

 **************************************************************************

 **************************************************************************

                    xk=(   0.00000,   0.90000,   1.00000  )

     zone border point and non-symmorphic group 
     symmetry decomposition not available

 **************************************************************************

 **************************************************************************

                    xk=(   0.00000,   1.00000,   1.00000  )

     zone border point and non-symmorphic group 
     symmetry decomposition not available

 **************************************************************************

 **************************************************************************

                    xk=(   0.00000,   0.90000,   0.90000  )

     point group C_2v (mm2) 
     there are  4 classes
     the character table:

       E     C2    s_v   s_v' 
A_1    1.00  1.00  1.00  1.00
A_2    1.00  1.00 -1.00 -1.00
B_1    1.00 -1.00  1.00 -1.00
B_2    1.00 -1.00 -1.00  1.00

     the symmetry operations in each class and the name of the first element:

     E        1
                                                                 
     C2       2
                                                                 
     s_v      4
                                                                 
     s_v'     3
                                                                 

     Band symmetry, C_2v (mm2)  point group:

     e(  1 -  1) =     -1.56273  eV     1   --> A_1  D_1  S_1  
     e(  2 -  2) =     -1.42831  eV     1   --> B_1  D_3  S_3  
     e(  3 -  3) =      2.91361  eV     1   --> A_1  D_1  S_1  
     e(  4 -  4) =      3.46328  eV     1   --> A_2  D_2  S_2  
     e(  5 -  5) =      7.05456  eV     1   --> B_1  D_3  S_3  
     e(  6 -  6) =      7.74566  eV     1   --> A_1  D_1  S_1  
     e(  7 -  7) =     15.61592  eV     1   --> B_2  D_4  S_4  
     e(  8 -  8) =     15.91901  eV     1   --> B_1  D_3  S_3  

 **************************************************************************

 **************************************************************************

                    xk=(   0.00000,   0.80000,   0.80000  )

     Band symmetry, C_2v (mm2)  point group:

     e(  1 -  1) =     -1.74577  eV     1   --> A_1  D_1  S_1  
     e(  2 -  2) =     -1.14594  eV     1   --> B_1  D_3  S_3  
     e(  3 -  3) =      2.18261  eV     1   --> A_1  D_1  S_1  
     e(  4 -  4) =      3.66939  eV     1   --> A_2  D_2  S_2  
     e(  5 -  5) =      7.29323  eV     1   --> B_1  D_3  S_3  
     e(  6 -  6) =      9.40874  eV     1   --> A_1  D_1  S_1  
     e(  7 -  7) =     14.35307  eV     1   --> B_2  D_4  S_4  
     e(  8 -  8) =     14.92423  eV     1   --> A_1  D_1  S_1  

 **************************************************************************

 **************************************************************************

                    xk=(   0.00000,   0.70000,   0.70000  )

     Band symmetry, C_2v (mm2)  point group:

     e(  1 -  1) =     -2.19037  eV     1   --> A_1  D_1  S_1  
     e(  2 -  2) =     -0.67719  eV     1   --> B_1  D_3  S_3  
     e(  3 -  3) =      1.83620  eV     1   --> A_1  D_1  S_1  
     e(  4 -  4) =      3.99947  eV     1   --> A_2  D_2  S_2  
     e(  5 -  5) =      7.67641  eV     1   --> B_1  D_3  S_3  
     e(  6 -  6) =     11.39785  eV     1   --> A_1  D_1  S_1  
     e(  7 -  7) =     13.11650  eV     1   --> B_2  D_4  S_4  
     e(  8 -  8) =     13.66715  eV     1   --> A_1  D_1  S_1  

 **************************************************************************

 **************************************************************************

                    xk=(   0.00000,   0.60000,   0.60000  )

     Band symmetry, C_2v (mm2)  point group:

     e(  1 -  1) =     -2.87005  eV     1   --> A_1  D_1  S_1  
     e(  2 -  2) =     -0.02515  eV     1   --> B_1  D_3  S_3  
     e(  3 -  3) =      1.98404  eV     1   --> A_1  D_1  S_1  
     e(  4 -  4) =      4.42903  eV     1   --> A_2  D_2  S_2  
     e(  5 -  5) =      8.17350  eV     1   --> B_1  D_3  S_3  
     e(  6 -  6) =     12.00208  eV     1   --> B_2  D_4  S_4  
     e(  7 -  7) =     12.29493  eV     1   --> A_1  D_1  S_1  
     e(  8 -  8) =     13.12753  eV     1   --> B_1  D_3  S_3  

 **************************************************************************

 **************************************************************************

                    xk=(   0.00000,   0.50000,   0.50000  )

     Band symmetry, C_2v (mm2)  point group:

     e(  1 -  1) =     -3.62121  eV     1   --> A_1  D_1  S_1  
     e(  2 -  2) =      0.80512  eV     1   --> B_1  D_3  S_3  
     e(  3 -  3) =      2.49770  eV     1   --> A_1  D_1  S_1  
     e(  4 -  4) =      4.91639  eV     1   --> A_2  D_2  S_2  
     e(  5 -  5) =      8.71714  eV     1   --> B_1  D_3  S_3  
     e(  6 -  6) =     11.04028  eV     1   --> B_2  D_4  S_4  
     e(  7 -  7) =     11.38547  eV     1   --> A_1  D_1  S_1  
     e(  8 -  8) =     12.42175  eV     1   --> B_1  D_3  S_3  

 **************************************************************************

 **************************************************************************

                    xk=(   0.00000,   0.40000,   0.40000  )

     Band symmetry, C_2v (mm2)  point group:

     e(  1 -  1) =     -4.31705  eV     1   --> A_1  D_1  S_1  
     e(  2 -  2) =      1.80551  eV     1   --> B_1  D_3  S_3  
     e(  3 -  3) =      3.24937  eV     1   --> A_1  D_1  S_1  
     e(  4 -  4) =      5.39795  eV     1   --> A_2  D_2  S_2  
     e(  5 -  5) =      9.16507  eV     1   --> B_1  D_3  S_3  
     e(  6 -  6) =     10.24389  eV     1   --> B_2  D_4  S_4  
     e(  7 -  7) =     10.56548  eV     1   --> A_1  D_1  S_1  
     e(  8 -  8) =     12.01463  eV     1   --> B_1  D_3  S_3  

 **************************************************************************

 **************************************************************************

                    xk=(   0.00000,   0.30000,   0.30000  )

     Band symmetry, C_2v (mm2)  point group:

     e(  1 -  1) =     -4.89317  eV     1   --> A_1  D_1  S_1  
     e(  2 -  2) =      2.96103  eV     1   --> B_1  D_3  S_3  
     e(  3 -  3) =      4.14624  eV     1   --> A_1  D_1  S_1  
     e(  4 -  4) =      5.79832  eV     1   --> A_2  D_2  S_2  
     e(  5 -  5) =      9.33899  eV     1   --> B_1  D_3  S_3  
     e(  6 -  6) =      9.62026  eV     1   --> B_2  D_4  S_4  
     e(  7 -  7) =      9.89453  eV     1   --> A_1  D_1  S_1  
     e(  8 -  8) =     11.92443  eV     1   --> B_1  D_3  S_3  

 **************************************************************************

 **************************************************************************

                    xk=(   0.00000,   0.20000,   0.20000  )

     Band symmetry, C_2v (mm2)  point group:

     e(  1 -  1) =     -5.31887  eV     1   --> A_1  D_1  S_1  
     e(  2 -  2) =      4.23662  eV     1   --> B_1  D_3  S_3  
     e(  3 -  3) =      5.08530  eV     1   --> A_1  D_1  S_1  
     e(  4 -  4) =      6.06509  eV     1   --> A_2  D_2  S_2  
     e(  5 -  5) =      9.17253  eV     1   --> B_2  D_4  S_4  
     e(  6 -  6) =      9.26111  eV     1   --> B_1  D_3  S_3  
     e(  7 -  7) =      9.36635  eV     1   --> A_1  D_1  S_1  
     e(  8 -  8) =     11.49338  eV     1   --> B_1  D_3  S_3  

 **************************************************************************

 **************************************************************************

                    xk=(   0.00000,   0.10000,   0.10000  )

     Band symmetry, C_2v (mm2)  point group:

     e(  1 -  1) =     -5.57898  eV     1   --> A_1  D_1  S_1  
     e(  2 -  2) =      5.51600  eV     1   --> B_1  D_3  S_3  
     e(  3 -  3) =      5.89029  eV     1   --> A_1  D_1  S_1  
     e(  4 -  4) =      6.20086  eV     1   --> A_2  D_2  S_2  
     e(  5 -  5) =      8.90282  eV     1   --> B_2  D_4  S_4  
     e(  6 -  6) =      8.97903  eV     1   --> A_1  D_1  S_1  
     e(  7 -  7) =      9.06572  eV     1   --> B_1  D_3  S_3  
     e(  8 -  8) =     10.30789  eV     1   --> B_1  D_3  S_3  

 **************************************************************************

 **************************************************************************

                    xk=(   0.00000,   0.00000,   0.00000  )

     point group O_h (m-3m) 
     there are 10 classes
     the character table:

       E     8C3   3C2   6C4   6C2'  i     8S6   3s_h  6S4   6s_d 
A_1g   1.00  1.00  1.00  1.00  1.00  1.00  1.00  1.00  1.00  1.00
A_2g   1.00  1.00  1.00 -1.00 -1.00  1.00  1.00  1.00 -1.00 -1.00
E_g    2.00 -1.00  2.00  0.00  0.00  2.00 -1.00  2.00  0.00  0.00
T_1g   3.00  0.00 -1.00  1.00 -1.00  3.00  0.00 -1.00  1.00 -1.00
T_2g   3.00  0.00 -1.00 -1.00  1.00  3.00  0.00 -1.00 -1.00  1.00
A_1u   1.00  1.00  1.00  1.00  1.00 -1.00 -1.00 -1.00 -1.00 -1.00
A_2u   1.00  1.00  1.00 -1.00 -1.00 -1.00 -1.00 -1.00  1.00  1.00
E_u    2.00 -1.00  2.00  0.00  0.00 -2.00  1.00 -2.00  0.00  0.00
T_1u   3.00  0.00 -1.00  1.00 -1.00 -3.00  0.00  1.00 -1.00  1.00
T_2u   3.00  0.00 -1.00 -1.00  1.00 -3.00  0.00  1.00  1.00 -1.00

     the symmetry operations in each class and the name of the first element:

     E        1
                                                                 
     8C3     17   19   20   18   24   21   22   23
                                                                 
     3C2      2    4    3
                                                                 
     6C4      7    8   15   16   12   11
                                                                 
     6C2'     5    6   14   13   10    9
                                                                 
     i       25
                                                                 
     8S6     41   43   44   42   48   45   46   47
                                                                 
     3s_h    26   28   27
                                                                 
     6S4     31   32   39   40   36   35
                                                                 
     6s_d    29   30   38   37   34   33
                                                                 

     Band symmetry, O_h (m-3m)  point group:

     e(  1 -  1) =     -5.66642  eV     1   --> A_1g G_1   G_1+
     e(  2 -  4) =      6.24044  eV     3   --> T_2g G_25' G_5+
     e(  5 -  7) =      8.81286  eV     3   --> T_1u G_15  G_4-
     e(  8 -  8) =      9.71583  eV     1   --> A_2u G_2'  G_2-

 **************************************************************************

     BANDS        :      2.12s CPU      1.59s WALL


   This run was terminated on:  23:47:34   1May2020            

=------------------------------------------------------------------------------=
   JOB DONE.
=------------------------------------------------------------------------------=
