
     Program PWSCF v.6.4.1 starts on  1May2020 at 23:20: 6 

     This program is part of the open-source Quantum ESPRESSO suite
     for quantum simulation of materials; please cite
         "P. Giannozzi et al., J. Phys.:Condens. Matter 21 395502 (2009);
         "P. Giannozzi et al., J. Phys.:Condens. Matter 29 465901 (2017);
          URL http://www.quantum-espresso.org", 
     in publications or presentations arising from this work. More details at
     http://www.quantum-espresso.org/quote

     Parallel version (MPI & OpenMP), running on       4 processor cores
     Number of MPI processes:                 1
     Threads/MPI process:                     4

     MPI processes distributed on     1 nodes
     Waiting for input...
     Reading input from standard input

     Current dimensions of program PWSCF are:
     Max number of different atomic species (ntypx) = 10
     Max number of k-points (npk) =  40000
     Max angular momentum in pseudopotentials (lmaxx) =  3

     Atomic positions and unit cell read from directory:
     ./out/\Si_exc1.save\


     Subspace diagonalization in iterative solution of the eigenvalue problem:
     a serial algorithm will be used


     G-vector sticks info
     --------------------
     sticks:   dense  smooth     PW     G-vecs:    dense   smooth      PW
     Sum         295     295    109                 3287     3287     701



     bravais-lattice index     =            2
     lattice parameter (alat)  =      10.2600  a.u.
     unit-cell volume          =     270.0114 (a.u.)^3
     number of atoms/cell      =            2
     number of atomic types    =            1
     number of electrons       =         8.00
     number of Kohn-Sham states=            8
     kinetic-energy cutoff     =      20.0000  Ry
     charge density cutoff     =      80.0000  Ry
     Exchange-correlation      =  SLA  PW   PBE  PBE ( 1  4  3  4 0 0)

     celldm(1)=  10.260000  celldm(2)=   0.000000  celldm(3)=   0.000000
     celldm(4)=   0.000000  celldm(5)=   0.000000  celldm(6)=   0.000000

     crystal axes: (cart. coord. in units of alat)
               a(1) = (  -0.500000   0.000000   0.500000 )  
               a(2) = (   0.000000   0.500000   0.500000 )  
               a(3) = (  -0.500000   0.500000   0.000000 )  

     reciprocal axes: (cart. coord. in units 2 pi/alat)
               b(1) = ( -1.000000 -1.000000  1.000000 )  
               b(2) = (  1.000000  1.000000  1.000000 )  
               b(3) = ( -1.000000  1.000000 -1.000000 )  


     PseudoPot. # 1 for Si read from file:
     ./pseudo\Si.pbe-rrkj.UPF
     MD5 check sum: 92d9a3836de211b9bd312906903a9134
     Pseudo is Norm-conserving, Zval =  4.0
     Generated by new atomic code, or converted to UPF format
     Using radial grid of  883 points,  3 beta functions with: 
                l(1) =   0
                l(2) =   0
                l(3) =   1

     atomic species   valence    mass     pseudopotential
        Si             4.00    28.08600     Si( 1.00)

     48 Sym. Ops., with inversion, found (24 have fractional translation)



   Cartesian axes

     site n.     atom                  positions (alat units)
         1           Si  tau(   1) = (   0.0000000   0.0000000   0.0000000  )
         2           Si  tau(   2) = (   0.2500000   0.2500000   0.2500000  )

     number of k points=    36
                       cart. coord. in units 2pi/alat
        k(    1) = (   0.5000000   0.5000000   0.5000000), wk =   0.0030030
        k(    2) = (   0.4000000   0.4000000   0.4000000), wk =   0.0060060
        k(    3) = (   0.3000000   0.3000000   0.3000000), wk =   0.0090090
        k(    4) = (   0.2000000   0.2000000   0.2000000), wk =   0.0120120
        k(    5) = (   0.1000000   0.1000000   0.1000000), wk =   0.0150150
        k(    6) = (   0.0000000   0.0000000   0.0000000), wk =   0.0180180
        k(    7) = (   0.0000000   0.0000000   0.1000000), wk =   0.0210210
        k(    8) = (   0.0000000   0.0000000   0.2000000), wk =   0.0240240
        k(    9) = (   0.0000000   0.0000000   0.3000000), wk =   0.0270270
        k(   10) = (   0.0000000   0.0000000   0.4000000), wk =   0.0300300
        k(   11) = (   0.0000000   0.0000000   0.5000000), wk =   0.0330330
        k(   12) = (   0.0000000   0.0000000   0.6000000), wk =   0.0360360
        k(   13) = (   0.0000000   0.0000000   0.7000000), wk =   0.0390390
        k(   14) = (   0.0000000   0.0000000   0.8000000), wk =   0.0420420
        k(   15) = (   0.0000000   0.0000000   0.9000000), wk =   0.0450450
        k(   16) = (   0.0000000   0.0000000   1.0000000), wk =   0.0480480
        k(   17) = (   0.0000000   0.1000000   1.0000000), wk =   0.0510511
        k(   18) = (   0.0000000   0.2000000   1.0000000), wk =   0.0540541
        k(   19) = (   0.0000000   0.3000000   1.0000000), wk =   0.0570571
        k(   20) = (   0.0000000   0.4000000   1.0000000), wk =   0.0600601
        k(   21) = (   0.0000000   0.5000000   1.0000000), wk =   0.0630631
        k(   22) = (   0.0000000   0.6000000   1.0000000), wk =   0.0660661
        k(   23) = (   0.0000000   0.7000000   1.0000000), wk =   0.0690691
        k(   24) = (   0.0000000   0.8000000   1.0000000), wk =   0.0720721
        k(   25) = (   0.0000000   0.9000000   1.0000000), wk =   0.0750751
        k(   26) = (   0.0000000   1.0000000   1.0000000), wk =   0.0780781
        k(   27) = (   0.0000000   0.9000000   0.9000000), wk =   0.0810811
        k(   28) = (   0.0000000   0.8000000   0.8000000), wk =   0.0840841
        k(   29) = (   0.0000000   0.7000000   0.7000000), wk =   0.0870871
        k(   30) = (   0.0000000   0.6000000   0.6000000), wk =   0.0900901
        k(   31) = (   0.0000000   0.5000000   0.5000000), wk =   0.0930931
        k(   32) = (   0.0000000   0.4000000   0.4000000), wk =   0.0960961
        k(   33) = (   0.0000000   0.3000000   0.3000000), wk =   0.0990991
        k(   34) = (   0.0000000   0.2000000   0.2000000), wk =   0.1021021
        k(   35) = (   0.0000000   0.1000000   0.1000000), wk =   0.1051051
        k(   36) = (   0.0000000   0.0000000   0.0000000), wk =   0.1081081

     Dense  grid:     3287 G-vectors     FFT dimensions: (  24,  24,  24)

     Estimated max dynamical RAM per process >       2.12 MB

     The potential is recalculated from file :
     ./out/\Si_exc1.save\charge-density

     Starting wfcs are    8 randomized atomic wfcs

     Band Structure Calculation
     Davidson diagonalization with overlap

     ethr =  1.25E-08,  avg # of iterations = 12.9

     total cpu time spent up to now is        1.8 secs

     End of band structure calculation

          k = 0.5000 0.5000 0.5000 (   410 PWs)   bands (ev):

    -3.3292  -0.6993   5.0452   5.0452   7.8378   9.5879   9.5879  13.9919

          k = 0.4000 0.4000 0.4000 (   413 PWs)   bands (ev):

    -3.7839   0.0011   5.1168   5.1168   7.9186   9.6640   9.6640  14.1035

          k = 0.3000 0.3000 0.3000 (   401 PWs)   bands (ev):

    -4.5329   1.4770   5.3292   5.3292   8.1542   9.7822   9.7822  13.8444

          k = 0.2000 0.2000 0.2000 (   402 PWs)   bands (ev):

    -5.1489   3.2592   5.6633   5.6633   8.5083   9.6120   9.6120  12.3443

          k = 0.1000 0.1000 0.1000 (   405 PWs)   bands (ev):

    -5.5355   5.1114   6.0429   6.0429   8.8455   9.1046   9.1046  10.6048

          k = 0.0000 0.0000 0.0000 (   411 PWs)   bands (ev):

    -5.6664   6.2404   6.2404   6.2404   8.8129   8.8129   8.8129   9.7158

          k = 0.0000 0.0000 0.1000 (   411 PWs)   bands (ev):

    -5.6226   5.9693   6.0654   6.0654   8.7089   9.0418   9.0418   9.9770

          k = 0.0000 0.0000 0.2000 (   399 PWs)   bands (ev):

    -5.4915   5.3254   5.6660   5.6660   8.4391   9.6022   9.6022  10.5165

          k = 0.0000 0.0000 0.3000 (   399 PWs)   bands (ev):

    -5.2739   4.5226   5.2039   5.2039   8.0862  10.3288  10.3288  10.7078

          k = 0.0000 0.0000 0.4000 (   407 PWs)   bands (ev):

    -4.9709   3.6580   4.7560   4.7560   7.7222  10.1589  11.1411  11.1411

          k = 0.0000 0.0000 0.5000 (   415 PWs)   bands (ev):

    -4.5845   2.7688   4.3547   4.3547   7.3924   9.3962  12.0040  12.0040

          k = 0.0000 0.0000 0.6000 (   415 PWs)   bands (ev):

    -4.1171   1.8737   4.0153   4.0153   7.1254   8.6759  12.9004  12.9004

          k = 0.0000 0.0000 0.7000 (   420 PWs)   bands (ev):

    -3.5723   0.9850   3.7458   3.7458   6.9386   8.0622  13.8209  13.8209

          k = 0.0000 0.0000 0.8000 (   416 PWs)   bands (ev):

    -2.9542   0.1150   3.5508   3.5508   6.8450   7.5733  14.7617  14.7617

          k = 0.0000 0.0000 0.9000 (   412 PWs)   bands (ev):

    -2.2687  -0.7247   3.4329   3.4329   6.8540   7.2114  15.7027  15.7027

          k = 0.0000 0.0000 1.0000 (   412 PWs)   bands (ev):

    -1.5226  -1.5226   3.3934   3.3934   6.9737   6.9737  16.3699  16.3699

          k = 0.0000 0.1000 1.0000 (   410 PWs)   bands (ev):

    -1.5080  -1.5080   3.2694   3.2694   7.2077   7.2077  15.9144  15.9144

          k = 0.0000 0.2000 1.0000 (   414 PWs)   bands (ev):

    -1.4686  -1.4686   2.9854   2.9854   7.8238   7.8238  14.7506  14.7506

          k = 0.0000 0.3000 1.0000 (   412 PWs)   bands (ev):

    -1.4172  -1.4172   2.6868   2.6868   8.6835   8.6835  13.4518  13.4518

          k = 0.0000 0.4000 1.0000 (   404 PWs)   bands (ev):

    -1.3731  -1.3731   2.4718   2.4718   9.6869   9.6869  12.1865  12.1865

          k = 0.0000 0.5000 1.0000 (   412 PWs)   bands (ev):

    -1.3557  -1.3557   2.3941   2.3941  10.5153  10.5153  11.2713  11.2713

          k = 0.0000 0.6000 1.0000 (   404 PWs)   bands (ev):

    -1.3731  -1.3731   2.4718   2.4718   9.6869   9.6869  12.1865  12.1865

          k = 0.0000 0.7000 1.0000 (   412 PWs)   bands (ev):

    -1.4172  -1.4172   2.6868   2.6868   8.6835   8.6835  13.4518  13.4518

          k = 0.0000 0.8000 1.0000 (   414 PWs)   bands (ev):

    -1.4686  -1.4686   2.9854   2.9854   7.8238   7.8238  14.7506  14.7506

          k = 0.0000 0.9000 1.0000 (   410 PWs)   bands (ev):

    -1.5080  -1.5080   3.2694   3.2694   7.2077   7.2077  15.9144  15.9144

          k = 0.0000 1.0000 1.0000 (   412 PWs)   bands (ev):

    -1.5226  -1.5226   3.3934   3.3934   6.9737   6.9737  16.3699  16.3699

          k = 0.0000 0.9000 0.9000 (   412 PWs)   bands (ev):

    -1.5627  -1.4283   2.9136   3.4633   7.0546   7.7457  15.6159  15.9190

          k = 0.0000 0.8000 0.8000 (   411 PWs)   bands (ev):

    -1.7458  -1.1459   2.1826   3.6694   7.2932   9.4087  14.3531  14.9242

          k = 0.0000 0.7000 0.7000 (   403 PWs)   bands (ev):

    -2.1904  -0.6772   1.8362   3.9995   7.6764  11.3978  13.1165  13.6672

          k = 0.0000 0.6000 0.6000 (   407 PWs)   bands (ev):

    -2.8700  -0.0252   1.9840   4.4290   8.1735  12.0021  12.2949  13.1275

          k = 0.0000 0.5000 0.5000 (   407 PWs)   bands (ev):

    -3.6212   0.8051   2.4977   4.9164   8.7171  11.0403  11.3855  12.4218

          k = 0.0000 0.4000 0.4000 (   409 PWs)   bands (ev):

    -4.3170   1.8055   3.2494   5.3979   9.1651  10.2439  10.5655  12.0146

          k = 0.0000 0.3000 0.3000 (   399 PWs)   bands (ev):

    -4.8932   2.9610   4.1462   5.7983   9.3390   9.6203   9.8945  11.9244

          k = 0.0000 0.2000 0.2000 (   395 PWs)   bands (ev):

    -5.3189   4.2366   5.0853   6.0651   9.1725   9.2611   9.3664  11.4934

          k = 0.0000 0.1000 0.1000 (   409 PWs)   bands (ev):

    -5.5790   5.5160   5.8903   6.2009   8.9028   8.9790   9.0657  10.3079

          k = 0.0000 0.0000 0.0000 (   411 PWs)   bands (ev):

    -5.6664   6.2404   6.2404   6.2404   8.8129   8.8129   8.8129   9.7158

     Writing output data file Si_exc1.save\

     init_run     :      0.11s CPU      0.11s WALL (       1 calls)
     electrons    :      2.25s CPU      1.31s WALL (       1 calls)

     Called by init_run:
     wfcinit      :      0.02s CPU      0.00s WALL (       1 calls)
     potinit      :      0.00s CPU      0.01s WALL (       1 calls)
     hinit0       :      0.09s CPU      0.10s WALL (       1 calls)

     Called by electrons:
     c_bands      :      2.25s CPU      1.31s WALL (       1 calls)
     v_of_rho     :      0.00s CPU      0.01s WALL (       1 calls)

     Called by c_bands:
     init_us_2    :      0.00s CPU      0.01s WALL (      36 calls)
     cegterg      :      2.05s CPU      1.16s WALL (      37 calls)

     Called by sum_band:

     Called by *egterg:
     h_psi        :      1.62s CPU      1.01s WALL (     539 calls)
     g_psi        :      0.00s CPU      0.02s WALL (     466 calls)
     cdiaghg      :      0.14s CPU      0.10s WALL (     502 calls)

     Called by h_psi:
     h_psi:pot    :      1.62s CPU      0.99s WALL (     539 calls)
     h_psi:calbec :      0.06s CPU      0.02s WALL (     539 calls)
     vloc_psi     :      1.56s CPU      0.96s WALL (     539 calls)
     add_vuspsi   :      0.00s CPU      0.01s WALL (     539 calls)

     General routines
     calbec       :      0.06s CPU      0.02s WALL (     539 calls)
     fft          :      0.00s CPU      0.01s WALL (      10 calls)
     fftw         :      1.00s CPU      0.55s WALL (    5938 calls)
     davcio       :      0.00s CPU      0.00s WALL (      72 calls)

     Parallel routines

     PWSCF        :      3.02s CPU      2.15s WALL


   This run was terminated on:  23:20: 8   1May2020            

=------------------------------------------------------------------------------=
   JOB DONE.
=------------------------------------------------------------------------------=
