
     Program PWSCF v.6.4.1 starts on 20Jun2020 at  4:53:57 

     This program is part of the open-source Quantum ESPRESSO suite
     for quantum simulation of materials; please cite
         "P. Giannozzi et al., J. Phys.:Condens. Matter 21 395502 (2009);
         "P. Giannozzi et al., J. Phys.:Condens. Matter 29 465901 (2017);
          URL http://www.quantum-espresso.org", 
     in publications or presentations arising from this work. More details at
     http://www.quantum-espresso.org/quote

     Parallel version (MPI & OpenMP), running on       4 processor cores
     Number of MPI processes:                 1
     Threads/MPI process:                     4

     MPI processes distributed on     1 nodes
     Waiting for input...
     Reading input from standard input

     Current dimensions of program PWSCF are:
     Max number of different atomic species (ntypx) = 10
     Max number of k-points (npk) =  40000
     Max angular momentum in pseudopotentials (lmaxx) =  3

     Subspace diagonalization in iterative solution of the eigenvalue problem:
     a serial algorithm will be used


     G-vector sticks info
     --------------------
     sticks:   dense  smooth     PW     G-vecs:    dense   smooth      PW
     Sum         295     295     97                 3287     3287     645



     bravais-lattice index     =            2
     lattice parameter (alat)  =      10.2600  a.u.
     unit-cell volume          =     270.0114 (a.u.)^3
     number of atoms/cell      =            2
     number of atomic types    =            1
     number of electrons       =         8.00
     number of Kohn-Sham states=            4
     kinetic-energy cutoff     =      20.0000  Ry
     charge density cutoff     =      80.0000  Ry
     convergence threshold     =      1.0E-06
     mixing beta               =       0.6000
     number of iterations used =            8  plain     mixing
     Exchange-correlation      =  SLA  PW   PBE  PBE ( 1  4  3  4 0 0)

     celldm(1)=  10.260000  celldm(2)=   0.000000  celldm(3)=   0.000000
     celldm(4)=   0.000000  celldm(5)=   0.000000  celldm(6)=   0.000000

     crystal axes: (cart. coord. in units of alat)
               a(1) = (  -0.500000   0.000000   0.500000 )  
               a(2) = (   0.000000   0.500000   0.500000 )  
               a(3) = (  -0.500000   0.500000   0.000000 )  

     reciprocal axes: (cart. coord. in units 2 pi/alat)
               b(1) = ( -1.000000 -1.000000  1.000000 )  
               b(2) = (  1.000000  1.000000  1.000000 )  
               b(3) = ( -1.000000  1.000000 -1.000000 )  


     PseudoPot. # 1 for Si read from file:
     ./pseudo\Si.pbe-rrkj.UPF
     MD5 check sum: cf7ab5690cd9a85b22c4813f7e365554
     Pseudo is Norm-conserving, Zval =  4.0
     Generated by new atomic code, or converted to UPF format
     Using radial grid of  883 points,  3 beta functions with: 
                l(1) =   0
                l(2) =   0
                l(3) =   1

     atomic species   valence    mass     pseudopotential
        Si             4.00    28.08600     Si( 1.00)

     48 Sym. Ops., with inversion, found (24 have fractional translation)



   Cartesian axes

     site n.     atom                  positions (alat units)
         1           Si  tau(   1) = (   0.0000000   0.0000000   0.0000000  )
         2           Si  tau(   2) = (   0.2500000   0.2500000   0.2500000  )

     number of k points=     6
                       cart. coord. in units 2pi/alat
        k(    1) = (  -0.1666667   0.1666667   0.1666667), wk =   0.1481481
        k(    2) = (   0.5000000  -0.5000000   0.8333333), wk =   0.4444444
        k(    3) = (   0.1666667  -0.1666667   0.5000000), wk =   0.4444444
        k(    4) = (  -0.1666667  -1.1666667   0.1666667), wk =   0.4444444
        k(    5) = (  -0.5000000  -0.8333333  -0.1666667), wk =   0.4444444
        k(    6) = (   0.5000000  -0.5000000  -0.5000000), wk =   0.0740741

     Dense  grid:     3287 G-vectors     FFT dimensions: (  24,  24,  24)

     Estimated max dynamical RAM per process >       2.97 MB

     Initial potential from superposition of free atoms

     starting charge    7.99889, renormalised to    8.00000
     Starting wfcs are    8 randomized atomic wfcs

     total cpu time spent up to now is        0.6 secs

     Self-consistent Calculation

     iteration #  1     ecut=    20.00 Ry     beta= 0.60
     Davidson diagonalization with overlap
     ethr =  1.00E-02,  avg # of iterations =  2.0

     Threshold (ethr) on eigenvalues was too large:
     Diagonalizing with lowered threshold

     Davidson diagonalization with overlap
     ethr =  7.41E-04,  avg # of iterations =  1.0

     total cpu time spent up to now is        0.8 secs

     total energy              =     -15.73792603 Ry
     Harris-Foulkes estimate   =     -15.75064355 Ry
     estimated scf accuracy    <       0.05828894 Ry

     iteration #  2     ecut=    20.00 Ry     beta= 0.60
     Davidson diagonalization with overlap
     ethr =  7.29E-04,  avg # of iterations =  1.0

     total cpu time spent up to now is        0.8 secs

     total energy              =     -15.73881866 Ry
     Harris-Foulkes estimate   =     -15.73948962 Ry
     estimated scf accuracy    <       0.00622439 Ry

     iteration #  3     ecut=    20.00 Ry     beta= 0.60
     Davidson diagonalization with overlap
     ethr =  7.78E-05,  avg # of iterations =  1.8

     total cpu time spent up to now is        0.9 secs

     total energy              =     -15.73936667 Ry
     Harris-Foulkes estimate   =     -15.73939769 Ry
     estimated scf accuracy    <       0.00012246 Ry

     iteration #  4     ecut=    20.00 Ry     beta= 0.60
     Davidson diagonalization with overlap
     ethr =  1.53E-06,  avg # of iterations =  3.2

     total cpu time spent up to now is        1.0 secs

     total energy              =     -15.73944021 Ry
     Harris-Foulkes estimate   =     -15.73944283 Ry
     estimated scf accuracy    <       0.00000668 Ry

     iteration #  5     ecut=    20.00 Ry     beta= 0.60
     Davidson diagonalization with overlap
     ethr =  8.35E-08,  avg # of iterations =  2.0

     total cpu time spent up to now is        1.1 secs

     End of self-consistent calculation

          k =-0.1667 0.1667 0.1667 (   396 PWs)   bands (ev):

    -5.3036   3.8861   5.7940   5.7940

          k = 0.5000-0.5000 0.8333 (   410 PWs)   bands (ev):

    -3.5567   0.2731   3.2093   4.9487

          k = 0.1667-0.1667 0.5000 (   405 PWs)   bands (ev):

    -4.3650   1.8442   4.2632   4.5003

          k =-0.1667-1.1667 0.1667 (   411 PWs)   bands (ev):

    -2.5956  -0.2706   2.6175   3.6929

          k =-0.5000-0.8333-0.1667 (   406 PWs)   bands (ev):

    -2.3860  -0.5539   2.2436   3.4864

          k = 0.5000-0.5000-0.5000 (   410 PWs)   bands (ev):

    -3.3274  -0.6979   5.0470   5.0470

     highest occupied level (ev):     5.7940

!    total energy              =     -15.73944158 Ry
     Harris-Foulkes estimate   =     -15.73944171 Ry
     estimated scf accuracy    <       0.00000035 Ry

     The total energy is the sum of the following terms:

     one-electron contribution =       4.77927688 Ry
     hartree contribution      =       1.09670314 Ry
     xc contribution           =      -4.81449201 Ry
     ewald contribution        =     -16.80092959 Ry

     convergence has been achieved in   5 iterations

     Writing output data file Si_exc1.save\

     init_run     :      0.27s CPU      0.27s WALL (       1 calls)
     electrons    :      0.78s CPU      0.47s WALL (       1 calls)

     Called by init_run:
     wfcinit      :      0.11s CPU      0.08s WALL (       1 calls)
     potinit      :      0.03s CPU      0.01s WALL (       1 calls)
     hinit0       :      0.11s CPU      0.17s WALL (       1 calls)

     Called by electrons:
     c_bands      :      0.45s CPU      0.31s WALL (       6 calls)
     sum_band     :      0.12s CPU      0.07s WALL (       6 calls)
     v_of_rho     :      0.17s CPU      0.07s WALL (       6 calls)
     mix_rho      :      0.00s CPU      0.00s WALL (       6 calls)

     Called by c_bands:
     init_us_2    :      0.06s CPU      0.03s WALL (      78 calls)
     cegterg      :      0.44s CPU      0.28s WALL (      36 calls)

     Called by sum_band:

     Called by *egterg:
     h_psi        :      0.50s CPU      0.27s WALL (     108 calls)
     g_psi        :      0.00s CPU      0.01s WALL (      66 calls)
     cdiaghg      :      0.03s CPU      0.04s WALL (      96 calls)

     Called by h_psi:
     h_psi:pot    :      0.50s CPU      0.26s WALL (     108 calls)
     h_psi:calbec :      0.00s CPU      0.01s WALL (     108 calls)
     vloc_psi     :      0.50s CPU      0.24s WALL (     108 calls)
     add_vuspsi   :      0.00s CPU      0.01s WALL (     108 calls)

     General routines
     calbec       :      0.00s CPU      0.01s WALL (     108 calls)
     fft          :      0.06s CPU      0.03s WALL (      60 calls)
     ffts         :      0.00s CPU      0.00s WALL (       6 calls)
     fftw         :      0.34s CPU      0.13s WALL (     990 calls)

     Parallel routines

     PWSCF        :      1.25s CPU      1.28s WALL


   This run was terminated on:   4:53:59  20Jun2020            

=------------------------------------------------------------------------------=
   JOB DONE.
=------------------------------------------------------------------------------=
