
     Program PWSCF v.6.4.1 starts on  8Jun2021 at 13:17:33 

     This program is part of the open-source Quantum ESPRESSO suite
     for quantum simulation of materials; please cite
         "P. Giannozzi et al., J. Phys.:Condens. Matter 21 395502 (2009);
         "P. Giannozzi et al., J. Phys.:Condens. Matter 29 465901 (2017);
          URL http://www.quantum-espresso.org", 
     in publications or presentations arising from this work. More details at
     http://www.quantum-espresso.org/quote

     Parallel version (MPI & OpenMP), running on      12 processor cores
     Number of MPI processes:                 1
     Threads/MPI process:                    12

     MPI processes distributed on     1 nodes
     Waiting for input...
     Reading input from standard input

     Current dimensions of program PWSCF are:
     Max number of different atomic species (ntypx) = 10
     Max number of k-points (npk) =  40000
     Max angular momentum in pseudopotentials (lmaxx) =  3
     Message from routine read_upf::
     Pseudo file Sn.pbe-dn-rrkjus_psl.1.0.0.UPF has been fixed on the fly.
To avoid this message in the future, permanently fix 
 your pseudo files following these instructions: 
https://gitlab.com/QEF/q-e/blob/master/upftools/how_to_fix_upf.md
     Message from routine read_upf::
     Pseudo file Se.pbe-n-rrkjus_psl.1.0.0.UPF has been fixed on the fly.
To avoid this message in the future, permanently fix 
 your pseudo files following these instructions: 
https://gitlab.com/QEF/q-e/blob/master/upftools/how_to_fix_upf.md
               file Sn.pbe-dn-rrkjus_psl.1.0.0.UPF: wavefunction(s)  5S 4D renormalized

     Subspace diagonalization in iterative solution of the eigenvalue problem:
     a serial algorithm will be used


     G-vector sticks info
     --------------------
     sticks:   dense  smooth     PW     G-vecs:    dense   smooth      PW
     Sum        1069     475    121               117381    34761    4411



     bravais-lattice index     =            4
     lattice parameter (alat)  =       6.0325  a.u.
     unit-cell volume          =     796.7448 (a.u.)^3
     number of atoms/cell      =            6
     number of atomic types    =            3
     number of electrons       =        52.00
     number of Kohn-Sham states=           31
     kinetic-energy cutoff     =      47.0743  Ry
     charge density cutoff     =     423.6680  Ry
     convergence threshold     =      1.0E-06
     mixing beta               =       0.4000
     number of iterations used =            8  plain     mixing
     Exchange-correlation      =  SLA  PW   PBE  PBE ( 1  4  3  4 0 0)

     celldm(1)=   6.032459  celldm(2)=   0.000000  celldm(3)=   4.190882
     celldm(4)=   0.000000  celldm(5)=   0.000000  celldm(6)=   0.000000

     crystal axes: (cart. coord. in units of alat)
               a(1) = (   1.000000   0.000000   0.000000 )  
               a(2) = (  -0.500000   0.866025   0.000000 )  
               a(3) = (   0.000000   0.000000   4.190882 )  

     reciprocal axes: (cart. coord. in units 2 pi/alat)
               b(1) = (  1.000000  0.577350 -0.000000 )  
               b(2) = (  0.000000  1.154701  0.000000 )  
               b(3) = (  0.000000 -0.000000  0.238613 )  


     PseudoPot. # 1 for Sn read from file:
     ./pseudo\Sn.pbe-dn-rrkjus_psl.1.0.0.UPF
     MD5 check sum: 6923576d35b7bb477f9d834f190d2db6
     Pseudo is Ultrasoft + core correction, Zval = 14.0
     Generated using "atomic" code by A. Dal Corso v.5.1.2
     Using radial grid of 1243 points,  6 beta functions with: 
                l(1) =   0
                l(2) =   0
                l(3) =   1
                l(4) =   1
                l(5) =   2
                l(6) =   2
     Q(r) pseudized with 0 coefficients 


     PseudoPot. # 2 for Se read from file:
     ./pseudo\Se.pbe-n-rrkjus_psl.1.0.0.UPF
     MD5 check sum: b4fde84b927950421ac83de11f467c93
     Pseudo is Ultrasoft + core correction, Zval =  6.0
     Generated using "atomic" code by A. Dal Corso v.5.1.2
     Using radial grid of 1211 points,  4 beta functions with: 
                l(1) =   0
                l(2) =   0
                l(3) =   1
                l(4) =   1
     Q(r) pseudized with 0 coefficients 


     PseudoPot. # 3 for W  read from file:
     ./pseudo\W.pbe-nsp-van.UPF
     MD5 check sum: d6466f82beb0ca8b88800d998c44bca0
     Pseudo is Ultrasoft + core correction, Zval = 14.0
     Generated by new atomic code, or converted to UPF format
     Using radial grid of  923 points,  6 beta functions with: 
                l(1) =   0
                l(2) =   0
                l(3) =   1
                l(4) =   1
                l(5) =   2
                l(6) =   2
     Q(r) pseudized with  6 coefficients,  rinner =    1.000   1.000   1.000
                                                       1.000   1.000

     atomic species   valence    mass     pseudopotential
        Sn            14.00   118.71000     Sn( 1.00)
        Se             6.00    78.96000     Se( 1.00)
        W             14.00   183.84000     W ( 1.00)

     Starting magnetic structure 
     atomic species   magnetization
        Sn           0.000
        Se           0.000
        W            0.200

     12 Sym. Ops. (no inversion) found ( 6 have fractional translation)



   Cartesian axes

     site n.     atom                  positions (alat units)
         1           Sn  tau(   1) = (  -0.0000006   0.5773501   3.1431600  )
         2           Se  tau(   2) = (   0.5000003   0.2886747   2.6531705  )
         3           Se  tau(   3) = (  -0.0000006   0.5773501   1.5377093  )
         4           Se  tau(   4) = (   0.5000003   0.2886747   3.6331491  )
         5           Se  tau(   5) = (  -0.0000006   0.5773501   0.5577306  )
         6           W   tau(   6) = (   0.5000003   0.2886747   1.0477201  )

     number of k points=     1  gaussian smearing, width (Ry)=  0.0100
                       cart. coord. in units 2pi/alat
        k(    1) = (   0.0000000   0.0000000   0.0000000), wk =   1.0000000

     Dense  grid:   117381 G-vectors     FFT dimensions: (  40,  40, 180)

     Smooth grid:    34761 G-vectors     FFT dimensions: (  27,  27, 120)

     Estimated max dynamical RAM per process >     479.46 MB
     Generating pointlists ...
     new r_m :   0.3124 (alat units)  1.8843 (a.u.) for type    1
     new r_m :   0.3124 (alat units)  1.8843 (a.u.) for type    2
     new r_m :   0.3124 (alat units)  1.8843 (a.u.) for type    3

     Initial potential from superposition of free atoms

     starting charge   51.99782, renormalised to   52.00000
     Starting wfcs are   38 randomized atomic wfcs

     total cpu time spent up to now is        7.7 secs

     Self-consistent Calculation

     iteration #  1     ecut=    47.07 Ry     beta= 0.40
     Davidson diagonalization with overlap
     ethr =  1.00E-02,  avg # of iterations =  2.5

     total cpu time spent up to now is        9.6 secs

     total energy              =    -402.25776256 Ry
     Harris-Foulkes estimate   =    -403.33391194 Ry
     estimated scf accuracy    <       2.19105197 Ry

     total magnetization       =     0.00 Bohr mag/cell
     absolute magnetization    =     0.76 Bohr mag/cell

     iteration #  2     ecut=    47.07 Ry     beta= 0.40
     Davidson diagonalization with overlap
     ethr =  4.21E-03,  avg # of iterations =  4.5

     total cpu time spent up to now is       11.6 secs

     total energy              =    -401.48607347 Ry
     Harris-Foulkes estimate   =    -403.87232660 Ry
     estimated scf accuracy    <      13.34833898 Ry

     total magnetization       =    -0.00 Bohr mag/cell
     absolute magnetization    =     0.34 Bohr mag/cell

     iteration #  3     ecut=    47.07 Ry     beta= 0.40
     Davidson diagonalization with overlap
     ethr =  4.21E-03,  avg # of iterations =  5.0

     total cpu time spent up to now is       13.6 secs

     total energy              =    -400.51254865 Ry
     Harris-Foulkes estimate   =    -404.44108230 Ry
     estimated scf accuracy    <      92.21063527 Ry

     total magnetization       =     0.00 Bohr mag/cell
     absolute magnetization    =     0.24 Bohr mag/cell

     iteration #  4     ecut=    47.07 Ry     beta= 0.40
     Davidson diagonalization with overlap
     ethr =  4.21E-03,  avg # of iterations =  4.5

     total cpu time spent up to now is       15.5 secs

     total energy              =    -402.99343562 Ry
     Harris-Foulkes estimate   =    -403.00175496 Ry
     estimated scf accuracy    <       0.25065925 Ry

     total magnetization       =     0.00 Bohr mag/cell
     absolute magnetization    =     0.60 Bohr mag/cell

     iteration #  5     ecut=    47.07 Ry     beta= 0.40
     Davidson diagonalization with overlap
     ethr =  4.82E-04,  avg # of iterations =  2.0

     total cpu time spent up to now is       17.4 secs

     total energy              =    -403.00073316 Ry
     Harris-Foulkes estimate   =    -403.01238715 Ry
     estimated scf accuracy    <       0.30817191 Ry

     total magnetization       =     0.00 Bohr mag/cell
     absolute magnetization    =     0.45 Bohr mag/cell

     iteration #  6     ecut=    47.07 Ry     beta= 0.40
     Davidson diagonalization with overlap
     ethr =  4.82E-04,  avg # of iterations =  1.0

     total cpu time spent up to now is       19.3 secs

     total energy              =    -402.99873960 Ry
     Harris-Foulkes estimate   =    -403.00723473 Ry
     estimated scf accuracy    <       0.18582738 Ry

     total magnetization       =    -0.00 Bohr mag/cell
     absolute magnetization    =     0.33 Bohr mag/cell

     iteration #  7     ecut=    47.07 Ry     beta= 0.40
     Davidson diagonalization with overlap
     ethr =  3.57E-04,  avg # of iterations =  1.0

     total cpu time spent up to now is       21.2 secs

     total energy              =    -402.99480038 Ry
     Harris-Foulkes estimate   =    -403.00073322 Ry
     estimated scf accuracy    <       0.09850598 Ry

     total magnetization       =    -0.00 Bohr mag/cell
     absolute magnetization    =     0.22 Bohr mag/cell

     iteration #  8     ecut=    47.07 Ry     beta= 0.40
     Davidson diagonalization with overlap
     ethr =  1.89E-04,  avg # of iterations =  1.0

     total cpu time spent up to now is       23.2 secs

     total energy              =    -402.99058010 Ry
     Harris-Foulkes estimate   =    -402.99556985 Ry
     estimated scf accuracy    <       0.06716517 Ry

     total magnetization       =    -0.00 Bohr mag/cell
     absolute magnetization    =     0.14 Bohr mag/cell

     iteration #  9     ecut=    47.07 Ry     beta= 0.40
     Davidson diagonalization with overlap
     ethr =  1.29E-04,  avg # of iterations =  1.0

     total cpu time spent up to now is       25.1 secs

     total energy              =    -402.98578261 Ry
     Harris-Foulkes estimate   =    -402.99112116 Ry
     estimated scf accuracy    <       0.04303544 Ry

     total magnetization       =    -0.00 Bohr mag/cell
     absolute magnetization    =     0.08 Bohr mag/cell

     iteration # 10     ecut=    47.07 Ry     beta= 0.40
     Davidson diagonalization with overlap
     ethr =  8.28E-05,  avg # of iterations =  1.0

     total cpu time spent up to now is       27.0 secs

     total energy              =    -402.98465410 Ry
     Harris-Foulkes estimate   =    -402.98653938 Ry
     estimated scf accuracy    <       0.02180848 Ry

     total magnetization       =     0.00 Bohr mag/cell
     absolute magnetization    =     0.02 Bohr mag/cell

     iteration # 11     ecut=    47.07 Ry     beta= 0.40
     Davidson diagonalization with overlap
     ethr =  4.19E-05,  avg # of iterations =  1.5

     total cpu time spent up to now is       29.0 secs

     total energy              =    -402.98386926 Ry
     Harris-Foulkes estimate   =    -402.98489444 Ry
     estimated scf accuracy    <       0.01353378 Ry

     total magnetization       =     0.00 Bohr mag/cell
     absolute magnetization    =     0.01 Bohr mag/cell

     iteration # 12     ecut=    47.07 Ry     beta= 0.40
     Davidson diagonalization with overlap
     ethr =  2.60E-05,  avg # of iterations =  1.0

     total cpu time spent up to now is       30.9 secs

     total energy              =    -402.98019627 Ry
     Harris-Foulkes estimate   =    -402.98396007 Ry
     estimated scf accuracy    <       0.00949380 Ry

     total magnetization       =     0.00 Bohr mag/cell
     absolute magnetization    =     0.00 Bohr mag/cell

     iteration # 13     ecut=    47.07 Ry     beta= 0.40
     Davidson diagonalization with overlap
     ethr =  1.83E-05,  avg # of iterations =  4.0

     total cpu time spent up to now is       32.9 secs

     total energy              =    -402.98156629 Ry
     Harris-Foulkes estimate   =    -402.98155798 Ry
     estimated scf accuracy    <       0.00005526 Ry

     total magnetization       =    -0.00 Bohr mag/cell
     absolute magnetization    =     0.04 Bohr mag/cell

     iteration # 14     ecut=    47.07 Ry     beta= 0.40
     Davidson diagonalization with overlap
     ethr =  1.06E-07,  avg # of iterations =  3.0

     total cpu time spent up to now is       34.9 secs

     total energy              =    -402.98156913 Ry
     Harris-Foulkes estimate   =    -402.98159501 Ry
     estimated scf accuracy    <       0.00007215 Ry

     total magnetization       =    -0.00 Bohr mag/cell
     absolute magnetization    =     0.02 Bohr mag/cell

     iteration # 15     ecut=    47.07 Ry     beta= 0.40
     Davidson diagonalization with overlap
     ethr =  1.06E-07,  avg # of iterations =  3.0

     total cpu time spent up to now is       36.8 secs

     total energy              =    -402.98155759 Ry
     Harris-Foulkes estimate   =    -402.98161654 Ry
     estimated scf accuracy    <       0.00017415 Ry

     total magnetization       =    -0.00 Bohr mag/cell
     absolute magnetization    =     0.01 Bohr mag/cell

     iteration # 16     ecut=    47.07 Ry     beta= 0.40
     Davidson diagonalization with overlap
     ethr =  1.06E-07,  avg # of iterations =  3.0

     total cpu time spent up to now is       38.8 secs

     total energy              =    -402.98157094 Ry
     Harris-Foulkes estimate   =    -402.98160878 Ry
     estimated scf accuracy    <       0.00016168 Ry

     total magnetization       =    -0.00 Bohr mag/cell
     absolute magnetization    =     0.01 Bohr mag/cell

     iteration # 17     ecut=    47.07 Ry     beta= 0.40
     Davidson diagonalization with overlap
     ethr =  1.06E-07,  avg # of iterations =  2.0

     total cpu time spent up to now is       40.7 secs

     total energy              =    -402.98159752 Ry
     Harris-Foulkes estimate   =    -402.98160051 Ry
     estimated scf accuracy    <       0.00002959 Ry

     total magnetization       =    -0.00 Bohr mag/cell
     absolute magnetization    =     0.01 Bohr mag/cell

     iteration # 18     ecut=    47.07 Ry     beta= 0.40
     Davidson diagonalization with overlap
     ethr =  5.69E-08,  avg # of iterations =  1.0

     total cpu time spent up to now is       42.6 secs

     total energy              =    -402.98159749 Ry
     Harris-Foulkes estimate   =    -402.98159861 Ry
     estimated scf accuracy    <       0.00000609 Ry

     total magnetization       =    -0.00 Bohr mag/cell
     absolute magnetization    =     0.00 Bohr mag/cell

     iteration # 19     ecut=    47.07 Ry     beta= 0.40
     Davidson diagonalization with overlap
     ethr =  1.17E-08,  avg # of iterations =  2.0

     Magnetic moment per site:
     atom:    1    charge:   10.8631    magn:   -0.0000    constr:    0.0000
     atom:    2    charge:    4.0369    magn:    0.0000    constr:    0.0000
     atom:    3    charge:    3.6527    magn:    0.0003    constr:    0.0000
     atom:    4    charge:    4.0369    magn:    0.0000    constr:    0.0000
     atom:    5    charge:    3.6527    magn:    0.0003    constr:    0.0000
     atom:    6    charge:   10.8844    magn:   -0.0006    constr:    0.0000

     total cpu time spent up to now is       44.5 secs

     End of self-consistent calculation

 ------ SPIN UP ------------


          k = 0.0000 0.0000 0.0000 (  4411 PWs)   bands (ev):

   -60.8578 -25.3937 -25.2481 -25.2481 -12.1610 -12.1610 -12.1278 -11.9523
   -11.9523  -5.7417  -5.2263  -3.7291  -2.5427   3.7559   4.5057   7.7146
     8.3368   8.3368   9.4589   9.4590   9.5135  11.0431  12.1588  12.1588
    13.5920  13.5920  14.1226  14.1226  14.4319  14.4472  14.4472

 ------ SPIN DOWN ----------


          k = 0.0000 0.0000 0.0000 (  4411 PWs)   bands (ev):

   -60.8586 -25.3947 -25.2491 -25.2491 -12.1610 -12.1610 -12.1278 -11.9523
   -11.9523  -5.7417  -5.2258  -3.7284  -2.5427   3.7559   4.5057   7.7148
     8.3367   8.3367   9.4589   9.4590   9.5136  11.0427  12.1588  12.1588
    13.5920  13.5921  14.1222  14.1223  14.4318  14.4473  14.4473

     the Fermi energy is    13.8572 ev

!    total energy              =    -402.98159819 Ry
     Harris-Foulkes estimate   =    -402.98159840 Ry
     estimated scf accuracy    <       0.00000024 Ry

     The total energy is the sum of the following terms:

     one-electron contribution =    -215.28626514 Ry
     hartree contribution      =     138.50192906 Ry
     xc contribution           =    -117.15785226 Ry
     ewald contribution        =    -209.03890463 Ry
     smearing contrib. (-TS)   =      -0.00050522 Ry

     total magnetization       =    -0.00 Bohr mag/cell
     absolute magnetization    =     0.00 Bohr mag/cell

     convergence has been achieved in  19 iterations

     Writing output data file wse_exc1.save\

     init_run     :     10.92s CPU      3.77s WALL (       1 calls)
     electrons    :    249.55s CPU     36.81s WALL (       1 calls)

     Called by init_run:
     wfcinit      :      0.75s CPU      0.13s WALL (       1 calls)
     potinit      :      2.64s CPU      0.28s WALL (       1 calls)
     hinit0       :      3.52s CPU      2.69s WALL (       1 calls)

     Called by electrons:
     c_bands      :     18.70s CPU      3.13s WALL (      19 calls)
     sum_band     :    123.72s CPU     18.09s WALL (      19 calls)
     v_of_rho     :     30.91s CPU      3.55s WALL (      20 calls)
     newd         :     77.78s CPU     12.06s WALL (      20 calls)
     mix_rho      :      2.64s CPU      0.45s WALL (      19 calls)

     Called by c_bands:
     init_us_2    :      0.41s CPU      0.06s WALL (      78 calls)
     cegterg      :     16.91s CPU      2.97s WALL (      38 calls)

     Called by sum_band:
     sum_band:bec :      0.00s CPU      0.01s WALL (      38 calls)
     addusdens    :    117.67s CPU     16.95s WALL (      19 calls)

     Called by *egterg:
     h_psi        :     13.61s CPU      2.40s WALL (     128 calls)
     s_psi        :      0.09s CPU      0.07s WALL (     128 calls)
     g_psi        :      0.23s CPU      0.02s WALL (      88 calls)
     cdiaghg      :      0.83s CPU      0.14s WALL (     126 calls)

     Called by h_psi:
     h_psi:pot    :     13.36s CPU      2.36s WALL (     128 calls)
     h_psi:calbec :      0.36s CPU      0.09s WALL (     128 calls)
     vloc_psi     :     12.16s CPU      2.19s WALL (     128 calls)
     add_vuspsi   :      0.84s CPU      0.08s WALL (     128 calls)

     General routines
     calbec       :      0.36s CPU      0.12s WALL (     166 calls)
     fft          :      1.22s CPU      0.34s WALL (     494 calls)
     ffts         :      0.09s CPU      0.02s WALL (      78 calls)
     fftw         :     11.19s CPU      1.79s WALL (    6496 calls)
     interpolate  :      0.44s CPU      0.13s WALL (      40 calls)

     Parallel routines

     PWSCF        :   4m24.64s CPU     44.57s WALL


   This run was terminated on:  13:18:18   8Jun2021            

=------------------------------------------------------------------------------=
   JOB DONE.
=------------------------------------------------------------------------------=
