
     Program PWSCF v.6.4.1 starts on 12May2021 at 13:17:57 

     This program is part of the open-source Quantum ESPRESSO suite
     for quantum simulation of materials; please cite
         "P. Giannozzi et al., J. Phys.:Condens. Matter 21 395502 (2009);
         "P. Giannozzi et al., J. Phys.:Condens. Matter 29 465901 (2017);
          URL http://www.quantum-espresso.org", 
     in publications or presentations arising from this work. More details at
     http://www.quantum-espresso.org/quote

     Parallel version (MPI & OpenMP), running on      12 processor cores
     Number of MPI processes:                 1
     Threads/MPI process:                    12

     MPI processes distributed on     1 nodes
     Waiting for input...
     Reading input from standard input

     Current dimensions of program PWSCF are:
     Max number of different atomic species (ntypx) = 10
     Max number of k-points (npk) =  40000
     Max angular momentum in pseudopotentials (lmaxx) =  3

     Atomic positions and unit cell read from directory:
     ./out/\Si_exc1.save\


     Subspace diagonalization in iterative solution of the eigenvalue problem:
     a serial algorithm will be used


     G-vector sticks info
     --------------------
     sticks:   dense  smooth     PW     G-vecs:    dense   smooth      PW
     Sum         295     295    109                 3287     3287     701



     bravais-lattice index     =            2
     lattice parameter (alat)  =      10.2600  a.u.
     unit-cell volume          =     270.0114 (a.u.)^3
     number of atoms/cell      =            2
     number of atomic types    =            1
     number of electrons       =         8.00
     number of Kohn-Sham states=            8
     kinetic-energy cutoff     =      20.0000  Ry
     charge density cutoff     =      80.0000  Ry
     Exchange-correlation      =  SLA  PW   PBE  PBE ( 1  4  3  4 0 0)

     celldm(1)=  10.260000  celldm(2)=   0.000000  celldm(3)=   0.000000
     celldm(4)=   0.000000  celldm(5)=   0.000000  celldm(6)=   0.000000

     crystal axes: (cart. coord. in units of alat)
               a(1) = (  -0.500000   0.000000   0.500000 )  
               a(2) = (   0.000000   0.500000   0.500000 )  
               a(3) = (  -0.500000   0.500000   0.000000 )  

     reciprocal axes: (cart. coord. in units 2 pi/alat)
               b(1) = ( -1.000000 -1.000000  1.000000 )  
               b(2) = (  1.000000  1.000000  1.000000 )  
               b(3) = ( -1.000000  1.000000 -1.000000 )  


     PseudoPot. # 1 for Si read from file:
     ./pseudo\Si.pbe-rrkj.UPF
     MD5 check sum: 92d9a3836de211b9bd312906903a9134
     Pseudo is Norm-conserving, Zval =  4.0
     Generated by new atomic code, or converted to UPF format
     Using radial grid of  883 points,  3 beta functions with: 
                l(1) =   0
                l(2) =   0
                l(3) =   1

     atomic species   valence    mass     pseudopotential
        Si             4.00    28.08600     Si( 1.00)

     48 Sym. Ops., with inversion, found (24 have fractional translation)



   Cartesian axes

     site n.     atom                  positions (alat units)
         1           Si  tau(   1) = (   0.0000000   0.0000000   0.0000000  )
         2           Si  tau(   2) = (   0.2500000   0.2500000   0.2500000  )

     number of k points=    36
                       cart. coord. in units 2pi/alat
        k(    1) = (   0.5000000   0.5000000   0.5000000), wk =   0.0030030
        k(    2) = (   0.4000000   0.4000000   0.4000000), wk =   0.0060060
        k(    3) = (   0.3000000   0.3000000   0.3000000), wk =   0.0090090
        k(    4) = (   0.2000000   0.2000000   0.2000000), wk =   0.0120120
        k(    5) = (   0.1000000   0.1000000   0.1000000), wk =   0.0150150
        k(    6) = (   0.0000000   0.0000000   0.0000000), wk =   0.0180180
        k(    7) = (   0.0000000   0.0000000   0.1000000), wk =   0.0210210
        k(    8) = (   0.0000000   0.0000000   0.2000000), wk =   0.0240240
        k(    9) = (   0.0000000   0.0000000   0.3000000), wk =   0.0270270
        k(   10) = (   0.0000000   0.0000000   0.4000000), wk =   0.0300300
        k(   11) = (   0.0000000   0.0000000   0.5000000), wk =   0.0330330
        k(   12) = (   0.0000000   0.0000000   0.6000000), wk =   0.0360360
        k(   13) = (   0.0000000   0.0000000   0.7000000), wk =   0.0390390
        k(   14) = (   0.0000000   0.0000000   0.8000000), wk =   0.0420420
        k(   15) = (   0.0000000   0.0000000   0.9000000), wk =   0.0450450
        k(   16) = (   0.0000000   0.0000000   1.0000000), wk =   0.0480480
        k(   17) = (   0.0000000   0.1000000   1.0000000), wk =   0.0510511
        k(   18) = (   0.0000000   0.2000000   1.0000000), wk =   0.0540541
        k(   19) = (   0.0000000   0.3000000   1.0000000), wk =   0.0570571
        k(   20) = (   0.0000000   0.4000000   1.0000000), wk =   0.0600601
        k(   21) = (   0.0000000   0.5000000   1.0000000), wk =   0.0630631
        k(   22) = (   0.0000000   0.6000000   1.0000000), wk =   0.0660661
        k(   23) = (   0.0000000   0.7000000   1.0000000), wk =   0.0690691
        k(   24) = (   0.0000000   0.8000000   1.0000000), wk =   0.0720721
        k(   25) = (   0.0000000   0.9000000   1.0000000), wk =   0.0750751
        k(   26) = (   0.0000000   1.0000000   1.0000000), wk =   0.0780781
        k(   27) = (   0.0000000   0.9000000   0.9000000), wk =   0.0810811
        k(   28) = (   0.0000000   0.8000000   0.8000000), wk =   0.0840841
        k(   29) = (   0.0000000   0.7000000   0.7000000), wk =   0.0870871
        k(   30) = (   0.0000000   0.6000000   0.6000000), wk =   0.0900901
        k(   31) = (   0.0000000   0.5000000   0.5000000), wk =   0.0930931
        k(   32) = (   0.0000000   0.4000000   0.4000000), wk =   0.0960961
        k(   33) = (   0.0000000   0.3000000   0.3000000), wk =   0.0990991
        k(   34) = (   0.0000000   0.2000000   0.2000000), wk =   0.1021021
        k(   35) = (   0.0000000   0.1000000   0.1000000), wk =   0.1051051
        k(   36) = (   0.0000000   0.0000000   0.0000000), wk =   0.1081081

     Dense  grid:     3287 G-vectors     FFT dimensions: (  24,  24,  24)

     Estimated max dynamical RAM per process >       2.12 MB

     The potential is recalculated from file :
     ./out/\Si_exc1.save\charge-density

     Starting wfcs are    8 randomized atomic wfcs

     Band Structure Calculation
     Davidson diagonalization with overlap

     ethr =  1.25E-08,  avg # of iterations = 12.9

     total cpu time spent up to now is        1.4 secs

     End of band structure calculation

          k = 0.5000 0.5000 0.5000 (   410 PWs)   bands (ev):

    -3.3345  -0.7039   5.0398   5.0398   7.8326   9.5847   9.5847  13.9876

          k = 0.4000 0.4000 0.4000 (   413 PWs)   bands (ev):

    -3.7890  -0.0037   5.1114   5.1114   7.9135   9.6607   9.6607  14.0991

          k = 0.3000 0.3000 0.3000 (   401 PWs)   bands (ev):

    -4.5379   1.4720   5.3238   5.3238   8.1492   9.7787   9.7787  13.8410

          k = 0.2000 0.2000 0.2000 (   402 PWs)   bands (ev):

    -5.1538   3.2540   5.6577   5.6577   8.5035   9.6082   9.6082  12.3381

          k = 0.1000 0.1000 0.1000 (   405 PWs)   bands (ev):

    -5.5403   5.1059   6.0371   6.0371   8.8412   9.1009   9.1009  10.5986

          k = 0.0000 0.0000 0.0000 (   411 PWs)   bands (ev):

    -5.6713   6.2345   6.2345   6.2345   8.8094   8.8094   8.8094   9.7093

          k = 0.0000 0.0000 0.1000 (   411 PWs)   bands (ev):

    -5.6275   5.9633   6.0596   6.0596   8.7054   9.0381   9.0381   9.9705

          k = 0.0000 0.0000 0.2000 (   399 PWs)   bands (ev):

    -5.4964   5.3194   5.6606   5.6606   8.4355   9.5981   9.5981  10.5102

          k = 0.0000 0.0000 0.3000 (   399 PWs)   bands (ev):

    -5.2788   4.5167   5.1988   5.1988   8.0824  10.3244  10.3244  10.7027

          k = 0.0000 0.0000 0.4000 (   407 PWs)   bands (ev):

    -4.9759   3.6520   4.7510   4.7510   7.7184  10.1549  11.1366  11.1366

          k = 0.0000 0.0000 0.5000 (   415 PWs)   bands (ev):

    -4.5895   2.7630   4.3498   4.3498   7.3885   9.3926  11.9993  11.9993

          k = 0.0000 0.0000 0.6000 (   415 PWs)   bands (ev):

    -4.1221   1.8680   4.0105   4.0105   7.1216   8.6724  12.8955  12.8955

          k = 0.0000 0.0000 0.7000 (   420 PWs)   bands (ev):

    -3.5773   0.9794   3.7411   3.7411   6.9347   8.0586  13.8160  13.8160

          k = 0.0000 0.0000 0.8000 (   416 PWs)   bands (ev):

    -2.9593   0.1095   3.5461   3.5461   6.8411   7.5697  14.7567  14.7567

          k = 0.0000 0.0000 0.9000 (   412 PWs)   bands (ev):

    -2.2739  -0.7301   3.4283   3.4283   6.8502   7.2077  15.6977  15.6977

          k = 0.0000 0.0000 1.0000 (   412 PWs)   bands (ev):

    -1.5279  -1.5279   3.3888   3.3888   6.9700   6.9700  16.3650  16.3650

          k = 0.0000 0.1000 1.0000 (   410 PWs)   bands (ev):

    -1.5133  -1.5133   3.2648   3.2648   7.2039   7.2039  15.9097  15.9097

          k = 0.0000 0.2000 1.0000 (   414 PWs)   bands (ev):

    -1.4739  -1.4739   2.9809   2.9809   7.8199   7.8199  14.7460  14.7460

          k = 0.0000 0.3000 1.0000 (   412 PWs)   bands (ev):

    -1.4226  -1.4226   2.6825   2.6825   8.6794   8.6794  13.4473  13.4473

          k = 0.0000 0.4000 1.0000 (   404 PWs)   bands (ev):

    -1.3785  -1.3785   2.4676   2.4676   9.6826   9.6826  12.1821  12.1821

          k = 0.0000 0.5000 1.0000 (   412 PWs)   bands (ev):

    -1.3611  -1.3611   2.3899   2.3899  10.5107  10.5107  11.2673  11.2673

          k = 0.0000 0.6000 1.0000 (   404 PWs)   bands (ev):

    -1.3785  -1.3785   2.4676   2.4676   9.6826   9.6826  12.1821  12.1821

          k = 0.0000 0.7000 1.0000 (   412 PWs)   bands (ev):

    -1.4226  -1.4226   2.6825   2.6825   8.6794   8.6794  13.4473  13.4473

          k = 0.0000 0.8000 1.0000 (   414 PWs)   bands (ev):

    -1.4739  -1.4739   2.9809   2.9809   7.8199   7.8199  14.7460  14.7460

          k = 0.0000 0.9000 1.0000 (   410 PWs)   bands (ev):

    -1.5133  -1.5133   3.2648   3.2648   7.2039   7.2039  15.9097  15.9097

          k = 0.0000 1.0000 1.0000 (   412 PWs)   bands (ev):

    -1.5279  -1.5279   3.3888   3.3888   6.9700   6.9700  16.3650  16.3650

          k = 0.0000 0.9000 0.9000 (   412 PWs)   bands (ev):

    -1.5681  -1.4336   2.9092   3.4586   7.0508   7.7417  15.6115  15.9141

          k = 0.0000 0.8000 0.8000 (   411 PWs)   bands (ev):

    -1.7512  -1.1512   2.1785   3.6647   7.2895   9.4045  14.3490  14.9186

          k = 0.0000 0.7000 0.7000 (   403 PWs)   bands (ev):

    -2.1957  -0.6825   1.8321   3.9946   7.6726  11.3933  13.1126  13.6617

          k = 0.0000 0.6000 0.6000 (   407 PWs)   bands (ev):

    -2.8753  -0.0305   1.9799   4.4240   8.1697  11.9983  12.2891  13.1227

          k = 0.0000 0.5000 0.5000 (   407 PWs)   bands (ev):

    -3.6263   0.7997   2.4934   4.9112   8.7133  11.0366  11.3798  12.4170

          k = 0.0000 0.4000 0.4000 (   409 PWs)   bands (ev):

    -4.3220   1.8001   3.2449   5.3925   9.1610  10.2403  10.5600  12.0101

          k = 0.0000 0.3000 0.3000 (   399 PWs)   bands (ev):

    -4.8981   2.9556   4.1415   5.7926   9.3347   9.6167   9.8894  11.9197

          k = 0.0000 0.2000 0.2000 (   395 PWs)   bands (ev):

    -5.3238   4.2311   5.0802   6.0592   9.1690   9.2568   9.3617  11.4876

          k = 0.0000 0.1000 0.1000 (   409 PWs)   bands (ev):

    -5.5838   5.5103   5.8847   6.1949   8.8993   8.9751   9.0618  10.3016

          k = 0.0000 0.0000 0.0000 (   411 PWs)   bands (ev):

    -5.6713   6.2345   6.2345   6.2345   8.8094   8.8094   8.8094   9.7093

     Writing output data file Si_exc1.save\

     init_run     :      0.16s CPU      0.07s WALL (       1 calls)
     electrons    :      5.52s CPU      0.97s WALL (       1 calls)

     Called by init_run:
     wfcinit      :      0.00s CPU      0.00s WALL (       1 calls)
     potinit      :      0.09s CPU      0.00s WALL (       1 calls)
     hinit0       :      0.06s CPU      0.06s WALL (       1 calls)

     Called by electrons:
     c_bands      :      5.42s CPU      0.97s WALL (       1 calls)
     v_of_rho     :      0.09s CPU      0.00s WALL (       1 calls)

     Called by c_bands:
     init_us_2    :      0.00s CPU      0.00s WALL (      36 calls)
     cegterg      :      4.88s CPU      0.86s WALL (      37 calls)

     Called by sum_band:

     Called by *egterg:
     h_psi        :      4.05s CPU      0.75s WALL (     539 calls)
     g_psi        :      0.09s CPU      0.02s WALL (     466 calls)
     cdiaghg      :      0.36s CPU      0.07s WALL (     502 calls)

     Called by h_psi:
     h_psi:pot    :      3.88s CPU      0.73s WALL (     539 calls)
     h_psi:calbec :      0.08s CPU      0.01s WALL (     539 calls)
     vloc_psi     :      3.80s CPU      0.71s WALL (     539 calls)
     add_vuspsi   :      0.00s CPU      0.01s WALL (     539 calls)

     General routines
     calbec       :      0.08s CPU      0.00s WALL (     539 calls)
     fft          :      0.00s CPU      0.00s WALL (      10 calls)
     fftw         :      1.22s CPU      0.20s WALL (    5938 calls)
     davcio       :      0.00s CPU      0.00s WALL (      72 calls)

     Parallel routines

     PWSCF        :      6.12s CPU      1.45s WALL


   This run was terminated on:  13:17:59  12May2021            

=------------------------------------------------------------------------------=
   JOB DONE.
=------------------------------------------------------------------------------=
