
     Program PWSCF v.6.4.1 starts on 12May2021 at 13: 7:31 

     This program is part of the open-source Quantum ESPRESSO suite
     for quantum simulation of materials; please cite
         "P. Giannozzi et al., J. Phys.:Condens. Matter 21 395502 (2009);
         "P. Giannozzi et al., J. Phys.:Condens. Matter 29 465901 (2017);
          URL http://www.quantum-espresso.org", 
     in publications or presentations arising from this work. More details at
     http://www.quantum-espresso.org/quote

     Parallel version (MPI & OpenMP), running on      12 processor cores
     Number of MPI processes:                 1
     Threads/MPI process:                    12

     MPI processes distributed on     1 nodes
     Waiting for input...
     Reading input from standard input

     Current dimensions of program PWSCF are:
     Max number of different atomic species (ntypx) = 10
     Max number of k-points (npk) =  40000
     Max angular momentum in pseudopotentials (lmaxx) =  3

     Subspace diagonalization in iterative solution of the eigenvalue problem:
     a serial algorithm will be used


     G-vector sticks info
     --------------------
     sticks:   dense  smooth     PW     G-vecs:    dense   smooth      PW
     Sum         295     295    109                 3287     3287     701



     bravais-lattice index     =            2
     lattice parameter (alat)  =      10.2600  a.u.
     unit-cell volume          =     270.0114 (a.u.)^3
     number of atoms/cell      =            2
     number of atomic types    =            1
     number of electrons       =         8.00
     number of Kohn-Sham states=            4
     kinetic-energy cutoff     =      20.0000  Ry
     charge density cutoff     =      80.0000  Ry
     convergence threshold     =      1.0E-06
     mixing beta               =       0.6000
     number of iterations used =            8  plain     mixing
     Exchange-correlation      =  SLA  PW   PBE  PBE ( 1  4  3  4 0 0)

     celldm(1)=  10.260000  celldm(2)=   0.000000  celldm(3)=   0.000000
     celldm(4)=   0.000000  celldm(5)=   0.000000  celldm(6)=   0.000000

     crystal axes: (cart. coord. in units of alat)
               a(1) = (  -0.500000   0.000000   0.500000 )  
               a(2) = (   0.000000   0.500000   0.500000 )  
               a(3) = (  -0.500000   0.500000   0.000000 )  

     reciprocal axes: (cart. coord. in units 2 pi/alat)
               b(1) = ( -1.000000 -1.000000  1.000000 )  
               b(2) = (  1.000000  1.000000  1.000000 )  
               b(3) = ( -1.000000  1.000000 -1.000000 )  


     PseudoPot. # 1 for Si read from file:
     ./pseudo\Si.pbe-rrkj.UPF
     MD5 check sum: cf7ab5690cd9a85b22c4813f7e365554
     Pseudo is Norm-conserving, Zval =  4.0
     Generated by new atomic code, or converted to UPF format
     Using radial grid of  883 points,  3 beta functions with: 
                l(1) =   0
                l(2) =   0
                l(3) =   1

     atomic species   valence    mass     pseudopotential
        Si             4.00    28.08600     Si( 1.00)

     48 Sym. Ops., with inversion, found (24 have fractional translation)



   Cartesian axes

     site n.     atom                  positions (alat units)
         1           Si  tau(   1) = (   0.0000000   0.0000000   0.0000000  )
         2           Si  tau(   2) = (   0.2500000   0.2500000   0.2500000  )

     number of k points=    28
                       cart. coord. in units 2pi/alat
        k(    1) = (  -0.0833333   0.0833333   0.0833333), wk =   0.0185185
        k(    2) = (  -0.2500000   0.2500000  -0.0833333), wk =   0.0555556
        k(    3) = (  -0.4166667   0.4166667  -0.2500000), wk =   0.0555556
        k(    4) = (   0.4166667  -0.4166667   0.5833333), wk =   0.0555556
        k(    5) = (   0.2500000  -0.2500000   0.4166667), wk =   0.0555556
        k(    6) = (   0.0833333  -0.0833333   0.2500000), wk =   0.0555556
        k(    7) = (  -0.0833333   0.4166667   0.0833333), wk =   0.0555556
        k(    8) = (  -0.2500000   0.5833333  -0.0833333), wk =   0.1111111
        k(    9) = (   0.5833333  -0.2500000   0.7500000), wk =   0.1111111
        k(   10) = (   0.4166667  -0.0833333   0.5833333), wk =   0.1111111
        k(   11) = (   0.2500000   0.0833333   0.4166667), wk =   0.1111111
        k(   12) = (  -0.0833333   0.7500000   0.0833333), wk =   0.0555556
        k(   13) = (   0.7500000  -0.0833333   0.9166667), wk =   0.1111111
        k(   14) = (   0.5833333   0.0833333   0.7500000), wk =   0.1111111
        k(   15) = (   0.4166667   0.2500000   0.5833333), wk =   0.1111111
        k(   16) = (  -0.0833333  -0.9166667   0.0833333), wk =   0.0555556
        k(   17) = (  -0.2500000  -0.7500000  -0.0833333), wk =   0.1111111
        k(   18) = (  -0.0833333  -0.5833333   0.0833333), wk =   0.0555556
        k(   19) = (  -0.2500000   0.2500000   0.2500000), wk =   0.0185185
        k(   20) = (  -0.4166667   0.4166667   0.0833333), wk =   0.0555556
        k(   21) = (   0.4166667  -0.4166667   0.9166667), wk =   0.0555556
        k(   22) = (   0.2500000  -0.2500000   0.7500000), wk =   0.0555556
        k(   23) = (  -0.2500000   0.5833333   0.2500000), wk =   0.0555556
        k(   24) = (   0.5833333  -0.2500000   1.0833333), wk =   0.1111111
        k(   25) = (   0.4166667  -0.0833333   0.9166667), wk =   0.1111111
        k(   26) = (  -0.2500000  -1.0833333   0.2500000), wk =   0.0555556
        k(   27) = (  -0.4166667   0.4166667   0.4166667), wk =   0.0185185
        k(   28) = (   0.4166667  -0.4166667   1.2500000), wk =   0.0555556

     Dense  grid:     3287 G-vectors     FFT dimensions: (  24,  24,  24)

     Estimated max dynamical RAM per process >       3.51 MB

     Initial potential from superposition of free atoms

     starting charge    7.99889, renormalised to    8.00000
     Starting wfcs are    8 randomized atomic wfcs

     total cpu time spent up to now is        0.3 secs

     Self-consistent Calculation

     iteration #  1     ecut=    20.00 Ry     beta= 0.60
     Davidson diagonalization with overlap
     ethr =  1.00E-02,  avg # of iterations =  2.0

     Threshold (ethr) on eigenvalues was too large:
     Diagonalizing with lowered threshold

     Davidson diagonalization with overlap
     ethr =  7.32E-04,  avg # of iterations =  1.1

     total cpu time spent up to now is        0.5 secs

     total energy              =     -15.73915167 Ry
     Harris-Foulkes estimate   =     -15.75172051 Ry
     estimated scf accuracy    <       0.05765770 Ry

     iteration #  2     ecut=    20.00 Ry     beta= 0.60
     Davidson diagonalization with overlap
     ethr =  7.21E-04,  avg # of iterations =  1.0

     total cpu time spent up to now is        0.6 secs

     total energy              =     -15.74007446 Ry
     Harris-Foulkes estimate   =     -15.74072872 Ry
     estimated scf accuracy    <       0.00611568 Ry

     iteration #  3     ecut=    20.00 Ry     beta= 0.60
     Davidson diagonalization with overlap
     ethr =  7.64E-05,  avg # of iterations =  1.8

     total cpu time spent up to now is        0.7 secs

     total energy              =     -15.74065307 Ry
     Harris-Foulkes estimate   =     -15.74069336 Ry
     estimated scf accuracy    <       0.00013573 Ry

     iteration #  4     ecut=    20.00 Ry     beta= 0.60
     Davidson diagonalization with overlap
     ethr =  1.70E-06,  avg # of iterations =  3.0

     total cpu time spent up to now is        0.9 secs

     total energy              =     -15.74071985 Ry
     Harris-Foulkes estimate   =     -15.74072811 Ry
     estimated scf accuracy    <       0.00001969 Ry

     iteration #  5     ecut=    20.00 Ry     beta= 0.60
     Davidson diagonalization with overlap
     ethr =  2.46E-07,  avg # of iterations =  2.2

     total cpu time spent up to now is        1.0 secs

     End of self-consistent calculation

          k =-0.0833 0.0833 0.0833 (   405 PWs)   bands (ev):

    -5.5778   5.3928   6.0947   6.0947

          k =-0.2500 0.2500-0.0833 (   399 PWs)   bands (ev):

    -5.0995   3.3246   4.8596   5.8860

          k =-0.4167 0.4167-0.2500 (   409 PWs)   bands (ev):

    -4.0013   0.5554   4.3991   5.2480

          k = 0.4167-0.4167 0.5833 (   407 PWs)   bands (ev):

    -3.2948  -0.5971   4.4684   4.8658

          k = 0.2500-0.2500 0.4167 (   405 PWs)   bands (ev):

    -4.4158   1.4052   4.9246   4.9692

          k = 0.0833-0.0833 0.2500 (   401 PWs)   bands (ev):

    -5.3364   4.3355   5.4466   5.6417

          k =-0.0833 0.4167 0.0833 (   404 PWs)   bands (ev):

    -4.8576   3.1498   4.7072   4.7145

          k =-0.2500 0.5833-0.0833 (   409 PWs)   bands (ev):

    -3.9433   1.3110   3.3821   4.3287

          k = 0.5833-0.2500 0.7500 (   409 PWs)   bands (ev):

    -2.8168  -0.4547   2.7846   4.0987

          k = 0.4167-0.0833 0.5833 (   411 PWs)   bands (ev):

    -3.5459   0.6133   2.7366   4.5888

          k = 0.2500 0.0833 0.4167 (   404 PWs)   bands (ev):

    -4.6310   2.3054   4.0820   5.2621

          k =-0.0833 0.7500 0.0833 (   413 PWs)   bands (ev):

    -3.2298   0.4928   3.3411   3.6829

          k = 0.7500-0.0833 0.9167 (   411 PWs)   bands (ev):

    -2.0273  -0.8495   2.4930   3.2737

          k = 0.5833 0.0833 0.7500 (   405 PWs)   bands (ev):

    -2.3956  -0.5213   2.0099   3.8219

          k = 0.4167 0.2500 0.5833 (   407 PWs)   bands (ev):

    -3.4312  -0.0871   3.6908   4.6871

          k =-0.0833-0.9167 0.0833 (   413 PWs)   bands (ev):

    -2.1216  -0.8584   3.0699   3.4670

          k =-0.2500-0.7500-0.0833 (   410 PWs)   bands (ev):

    -3.0593   0.2670   2.8199   3.6149

          k =-0.0833-0.5833 0.0833 (   413 PWs)   bands (ev):

    -4.1503   1.8575   3.8903   4.1063

          k =-0.2500 0.2500 0.2500 (   401 PWs)   bands (ev):

    -4.8689   2.3412   5.4808   5.4808

          k =-0.4167 0.4167 0.0833 (   404 PWs)   bands (ev):

    -4.1867   1.4171   3.3471   5.3120

          k = 0.4167-0.4167 0.9167 (   406 PWs)   bands (ev):

    -3.0000  -0.0207   2.2329   4.5222

          k = 0.2500-0.2500 0.7500 (   412 PWs)   bands (ev):

    -2.9485  -0.0998   2.7166   4.0379

          k =-0.2500 0.5833 0.2500 (   412 PWs)   bands (ev):

    -3.7603   0.6048   3.8217   4.4123

          k = 0.5833-0.2500 1.0833 (   409 PWs)   bands (ev):

    -2.7527  -0.1270   2.3319   3.6123

          k = 0.4167-0.0833 0.9167 (   405 PWs)   bands (ev):

    -1.9173  -0.8573   2.1615   2.9408

          k =-0.2500-1.0833 0.2500 (   410 PWs)   bands (ev):

    -2.1281  -0.7678   2.0346   3.8426

          k =-0.4167 0.4167 0.4167 (   413 PWs)   bands (ev):

    -3.6683  -0.1943   5.0925   5.0925

          k = 0.4167-0.4167 1.2500 (   406 PWs)   bands (ev):

    -3.0587  -0.4924   3.2635   4.6498

     highest occupied level (ev):     6.0947

!    total energy              =     -15.74072341 Ry
     Harris-Foulkes estimate   =     -15.74072376 Ry
     estimated scf accuracy    <       0.00000080 Ry

     The total energy is the sum of the following terms:

     one-electron contribution =       4.77975589 Ry
     hartree contribution      =       1.09337601 Ry
     xc contribution           =      -4.81292572 Ry
     ewald contribution        =     -16.80092959 Ry

     convergence has been achieved in   5 iterations

     Writing output data file Si_exc1.save\

     init_run     :      0.50s CPU      0.15s WALL (       1 calls)
     electrons    :      4.44s CPU      0.75s WALL (       1 calls)

     Called by init_run:
     wfcinit      :      0.44s CPU      0.08s WALL (       1 calls)
     potinit      :      0.00s CPU      0.00s WALL (       1 calls)
     hinit0       :      0.06s CPU      0.06s WALL (       1 calls)

     Called by electrons:
     c_bands      :      3.42s CPU      0.58s WALL (       6 calls)
     sum_band     :      0.92s CPU      0.14s WALL (       6 calls)
     v_of_rho     :      0.00s CPU      0.02s WALL (       6 calls)
     mix_rho      :      0.00s CPU      0.00s WALL (       6 calls)

     Called by c_bands:
     init_us_2    :      0.41s CPU      0.04s WALL (     364 calls)
     cegterg      :      2.98s CPU      0.53s WALL (     168 calls)

     Called by sum_band:

     Called by *egterg:
     h_psi        :      2.97s CPU      0.51s WALL (     507 calls)
     g_psi        :      0.00s CPU      0.01s WALL (     311 calls)
     cdiaghg      :      0.19s CPU      0.01s WALL (     451 calls)

     Called by h_psi:
     h_psi:pot    :      2.97s CPU      0.49s WALL (     507 calls)
     h_psi:calbec :      0.00s CPU      0.00s WALL (     507 calls)
     vloc_psi     :      2.80s CPU      0.47s WALL (     507 calls)
     add_vuspsi   :      0.17s CPU      0.01s WALL (     507 calls)

     General routines
     calbec       :      0.00s CPU      0.00s WALL (     507 calls)
     fft          :      0.00s CPU      0.00s WALL (      60 calls)
     ffts         :      0.00s CPU      0.00s WALL (       6 calls)
     fftw         :      1.58s CPU      0.17s WALL (    4584 calls)

     Parallel routines

     PWSCF        :      5.92s CPU      1.21s WALL


   This run was terminated on:  13: 7:32  12May2021            

=------------------------------------------------------------------------------=
   JOB DONE.
=------------------------------------------------------------------------------=
