
     Program PWSCF v.6.4.1 starts on 14May2021 at  8:45: 2 

     This program is part of the open-source Quantum ESPRESSO suite
     for quantum simulation of materials; please cite
         "P. Giannozzi et al., J. Phys.:Condens. Matter 21 395502 (2009);
         "P. Giannozzi et al., J. Phys.:Condens. Matter 29 465901 (2017);
          URL http://www.quantum-espresso.org", 
     in publications or presentations arising from this work. More details at
     http://www.quantum-espresso.org/quote

     Parallel version (MPI & OpenMP), running on      12 processor cores
     Number of MPI processes:                 1
     Threads/MPI process:                    12

     MPI processes distributed on     1 nodes
     Waiting for input...
     Reading input from standard input
Warning: card &BANDS ignored
Warning: card     LSYM           = .FALSE. ignored
Warning: card     SPIN_COMPONENT = 1 ignored
Warning: card / ignored

     Current dimensions of program PWSCF are:
     Max number of different atomic species (ntypx) = 10
     Max number of k-points (npk) =  40000
     Max angular momentum in pseudopotentials (lmaxx) =  3
     Message from routine iosys:
     wrong startingpot: use default (2)

     Atomic positions and unit cell read from directory:
     ./out/\Si_exc1.save\

     Message from routine read_upf::
     Pseudo file Sn.pbe-dn-rrkjus_psl.1.0.0.UPF has been fixed on the fly.
To avoid this message in the future, permanently fix 
 your pseudo files following these instructions: 
https://gitlab.com/QEF/q-e/blob/master/upftools/how_to_fix_upf.md
     Message from routine read_upf::
     Pseudo file Se.pbe-n-rrkjus_psl.1.0.0.UPF has been fixed on the fly.
To avoid this message in the future, permanently fix 
 your pseudo files following these instructions: 
https://gitlab.com/QEF/q-e/blob/master/upftools/how_to_fix_upf.md
               file Sn.pbe-dn-rrkjus_psl.1.0.0.UPF: wavefunction(s)  5S 4D renormalized

     Subspace diagonalization in iterative solution of the eigenvalue problem:
     a serial algorithm will be used

     Found symmetry operation: I + ( -0.0000  0.5000  0.0000)
     This is a supercell, fractional translations are disabled

     G-vector sticks info
     --------------------
     sticks:   dense  smooth     PW     G-vecs:    dense   smooth      PW
     Sum        4267    1891    517               469503   139185   20291



     bravais-lattice index     =            4
     lattice parameter (alat)  =      12.0649  a.u.
     unit-cell volume          =    3186.9792 (a.u.)^3
     number of atoms/cell      =           24
     number of atomic types    =            3
     number of electrons       =       208.00
     number of Kohn-Sham states=          152
     kinetic-energy cutoff     =      47.0743  Ry
     charge density cutoff     =     423.6680  Ry
     Exchange-correlation      =  SLA  PW   PBE  PBE ( 1  4  3  4 0 0)

     celldm(1)=  12.064919  celldm(2)=   0.000000  celldm(3)=   2.095441
     celldm(4)=   0.000000  celldm(5)=   0.000000  celldm(6)=   0.000000

     crystal axes: (cart. coord. in units of alat)
               a(1) = (   1.000000   0.000000   0.000000 )  
               a(2) = (  -0.500000   0.866025   0.000000 )  
               a(3) = (   0.000000   0.000000   2.095441 )  

     reciprocal axes: (cart. coord. in units 2 pi/alat)
               b(1) = (  1.000000  0.577350 -0.000000 )  
               b(2) = (  0.000000  1.154701  0.000000 )  
               b(3) = (  0.000000 -0.000000  0.477227 )  


     PseudoPot. # 1 for Sn read from file:
     ./pseudo\Sn.pbe-dn-rrkjus_psl.1.0.0.UPF
     MD5 check sum: 6923576d35b7bb477f9d834f190d2db6
     Pseudo is Ultrasoft + core correction, Zval = 14.0
     Generated using "atomic" code by A. Dal Corso v.5.1.2
     Using radial grid of 1243 points,  6 beta functions with: 
                l(1) =   0
                l(2) =   0
                l(3) =   1
                l(4) =   1
                l(5) =   2
                l(6) =   2
     Q(r) pseudized with 0 coefficients 


     PseudoPot. # 2 for Se read from file:
     ./pseudo\Se.pbe-n-rrkjus_psl.1.0.0.UPF
     MD5 check sum: b4fde84b927950421ac83de11f467c93
     Pseudo is Ultrasoft + core correction, Zval =  6.0
     Generated using "atomic" code by A. Dal Corso v.5.1.2
     Using radial grid of 1211 points,  4 beta functions with: 
                l(1) =   0
                l(2) =   0
                l(3) =   1
                l(4) =   1
     Q(r) pseudized with 0 coefficients 


     PseudoPot. # 3 for W  read from file:
     ./pseudo\W.pbe-nsp-van.UPF
     MD5 check sum: d6466f82beb0ca8b88800d998c44bca0
     Pseudo is Ultrasoft + core correction, Zval = 14.0
     Generated by new atomic code, or converted to UPF format
     Using radial grid of  923 points,  6 beta functions with: 
                l(1) =   0
                l(2) =   0
                l(3) =   1
                l(4) =   1
                l(5) =   2
                l(6) =   2
     Q(r) pseudized with  6 coefficients,  rinner =    1.000   1.000   1.000
                                                       1.000   1.000

     atomic species   valence    mass     pseudopotential
        Sn            14.00   118.71000     Sn( 1.00)
        Se             6.00    78.96000     Se( 1.00)
        W             14.00   183.84000     W ( 1.00)

     Starting magnetic structure 
     atomic species   magnetization
        Sn           0.000
        Se           0.000
        W            0.200

      6 Sym. Ops. (no inversion) found



   Cartesian axes

     site n.     atom                  positions (alat units)
         1           Sn  tau(   1) = (  -0.0000005   0.2886747   1.5715800  )
         2           Sn  tau(   2) = (  -0.2500003   0.7216871   1.5715800  )
         3           Sn  tau(   3) = (   0.4999992   0.2886747   1.5715800  )
         4           Sn  tau(   4) = (   0.2499994   0.7216871   1.5715800  )
         5           Se  tau(   5) = (   0.2499998   0.1443369   1.3265853  )
         6           Se  tau(   6) = (   0.0000000   0.5773493   1.3265853  )
         7           Se  tau(   7) = (   0.7499995   0.1443369   1.3265853  )
         8           Se  tau(   8) = (   0.4999997   0.5773493   1.3265853  )
         9           Se  tau(   9) = (  -0.0000005   0.2886747   0.7688546  )
        10           Se  tau(  10) = (  -0.2500003   0.7216871   0.7688546  )
        11           Se  tau(  11) = (   0.4999992   0.2886747   0.7688546  )
        12           Se  tau(  12) = (   0.2499994   0.7216871   0.7688546  )
        13           Se  tau(  13) = (   0.2499998   0.1443369   1.8165746  )
        14           Se  tau(  14) = (   0.0000000   0.5773493   1.8165746  )
        15           Se  tau(  15) = (   0.7499995   0.1443369   1.8165746  )
        16           Se  tau(  16) = (   0.4999997   0.5773493   1.8165746  )
        17           Se  tau(  17) = (  -0.0000005   0.2886747   0.2788653  )
        18           Se  tau(  18) = (  -0.2500003   0.7216871   0.2788653  )
        19           Se  tau(  19) = (   0.4999992   0.2886747   0.2788653  )
        20           Se  tau(  20) = (   0.2499994   0.7216871   0.2788653  )
        21           W   tau(  21) = (   0.2499998   0.1443369   0.5238600  )
        22           W   tau(  22) = (   0.0000000   0.5773493   0.5238600  )
        23           W   tau(  23) = (   0.7499995   0.1443369   0.5238600  )
        24           W   tau(  24) = (   0.4999997   0.5773493   0.5238600  )

     number of k points=   183  gaussian smearing, width (Ry)=  0.0100

     Number of k-points >= 100: set verbosity='high' to print them.

     Dense  grid:   469503 G-vectors     FFT dimensions: (  80,  80, 180)

     Smooth grid:   139185 G-vectors     FFT dimensions: (  54,  54, 120)

     Estimated max dynamical RAM per process >       1.76 GB
     Generating pointlists ...
     new r_m :   0.1562 (alat units)  1.8843 (a.u.) for type    1
     new r_m :   0.1562 (alat units)  1.8843 (a.u.) for type    2
     new r_m :   0.1562 (alat units)  1.8843 (a.u.) for type    3

     The potential is recalculated from file :
     ./out/\Si_exc1.save\charge-density

     Starting wfcs are  152 randomized atomic wfcs

     Band Structure Calculation
     Davidson diagonalization with overlap

     ethr =  4.81E-10,  avg # of iterations = 19.6

     total cpu time spent up to now is     3955.7 secs

     End of band structure calculation

     Number of k-points >= 100: set verbosity='high' to print the bands.

     Writing output data file Si_exc1.save\

     init_run     :     37.47s CPU     11.65s WALL (       1 calls)
     electrons    :  23996.19s CPU   3939.76s WALL (       1 calls)

     Called by init_run:
     wfcinit      :      0.00s CPU      0.00s WALL (       1 calls)
     potinit      :      7.00s CPU      0.86s WALL (       1 calls)
     hinit0       :     10.42s CPU      7.58s WALL (       1 calls)

     Called by electrons:
     c_bands      :  23996.19s CPU   3939.75s WALL (       1 calls)
     v_of_rho     :      6.55s CPU      0.78s WALL (       1 calls)
     newd         :     19.53s CPU      2.70s WALL (       1 calls)

     Called by c_bands:
     init_us_2    :     44.72s CPU      4.16s WALL (     366 calls)
     cegterg      :  21953.33s CPU   3587.70s WALL (     433 calls)

     Called by sum_band:

     Called by *egterg:
     h_psi        :  11693.86s CPU   1900.20s WALL (    7966 calls)
     s_psi        :   1170.33s CPU    197.27s WALL (    7966 calls)
     g_psi        :    185.05s CPU     18.31s WALL (    7167 calls)
     cdiaghg      :   2093.59s CPU    357.98s WALL (    7533 calls)

     Called by h_psi:
     h_psi:pot    :  11356.92s CPU   1865.24s WALL (    7966 calls)
     h_psi:calbec :    960.88s CPU    180.77s WALL (    7966 calls)
     vloc_psi     :   9228.50s CPU   1488.71s WALL (    7966 calls)
     add_vuspsi   :   1167.30s CPU    195.73s WALL (    7966 calls)

     General routines
     calbec       :    960.86s CPU    180.75s WALL (    7966 calls)
     fft          :      0.66s CPU      0.13s WALL (      23 calls)
     ffts         :      0.00s CPU      0.00s WALL (       2 calls)
     fftw         :   7021.81s CPU   1179.94s WALL ( 1238878 calls)
     interpolate  :      0.19s CPU      0.04s WALL (       2 calls)
     davcio       :     77.72s CPU     61.42s WALL (     732 calls)

     Parallel routines

     PWSCF        :      6h40m CPU      1h 9m WALL


   This run was terminated on:   9:54:47  14May2021            

=------------------------------------------------------------------------------=
   JOB DONE.
=------------------------------------------------------------------------------=
