
     Program BANDS v.6.4.1 starts on 14May2021 at 10: 0:40 

     This program is part of the open-source Quantum ESPRESSO suite
     for quantum simulation of materials; please cite
         "P. Giannozzi et al., J. Phys.:Condens. Matter 21 395502 (2009);
         "P. Giannozzi et al., J. Phys.:Condens. Matter 29 465901 (2017);
          URL http://www.quantum-espresso.org", 
     in publications or presentations arising from this work. More details at
     http://www.quantum-espresso.org/quote

     Parallel version (MPI & OpenMP), running on      12 processor cores
     Number of MPI processes:                 1
     Threads/MPI process:                    12

     MPI processes distributed on     1 nodes

     Reading data from directory:
     ./out/\Si_exc1.save\
     Message from routine read_upf::
     Pseudo file Sn.pbe-dn-rrkjus_psl.1.0.0.UPF has been fixed on the fly.
To avoid this message in the future, permanently fix 
 your pseudo files following these instructions: 
https://gitlab.com/QEF/q-e/blob/master/upftools/how_to_fix_upf.md
     Message from routine read_upf::
     Pseudo file Se.pbe-n-rrkjus_psl.1.0.0.UPF has been fixed on the fly.
To avoid this message in the future, permanently fix 
 your pseudo files following these instructions: 
https://gitlab.com/QEF/q-e/blob/master/upftools/how_to_fix_upf.md

     IMPORTANT: XC functional enforced from input :
     Exchange-correlation      = PBE ( 1  4  3  4 0 0)
     Any further DFT definition will be discarded
     Please, verify this is what you really want

               file Sn.pbe-dn-rrkjus_psl.1.0.0.UPF: wavefunction(s)  5S 4D renormalized

     G-vector sticks info
     --------------------
     sticks:   dense  smooth     PW     G-vecs:    dense   smooth      PW
     Sum        4267    1891    517               469503   139185   20291

     Generating pointlists ...
     new r_m :   0.1562 (alat units)  1.8843 (a.u.) for type    1
     new r_m :   0.1562 (alat units)  1.8843 (a.u.) for type    2
     new r_m :   0.1562 (alat units)  1.8843 (a.u.) for type    3
     high-symmetry point:  0.0000 0.0000 0.0000   x coordinate   0.0000
     high-symmetry point:  0.5000 0.2887 0.0000   x coordinate   0.5774
     high-symmetry point:  0.6667 0.0000 0.0000   x coordinate   0.9107
     high-symmetry point:  0.0000 0.0000 0.0000   x coordinate   1.5774
     high-symmetry point:  0.0000 0.0000 0.2386   x coordinate   1.8160
     high-symmetry point:  0.5000 0.2887 0.2386   x coordinate   2.3933
     high-symmetry point:  0.6667 0.0000 0.2386   x coordinate   2.7266
     high-symmetry point:  0.0000 0.0000 0.2386   x coordinate   3.3933
     high-symmetry point:  0.5000 0.2887 0.2386   x coordinate   3.3933
     high-symmetry point:  0.5000 0.2887 0.0000   x coordinate   3.6319
     high-symmetry point:  0.6667 0.0000 0.0000   x coordinate   3.6319
     high-symmetry point:  0.6667 0.0000 0.2386   x coordinate   3.8705

     Plottable bands (eV) written to file bands.dat.gnu
     Bands written to file bands.dat

 **************************************************************************

                    xk=(   0.00000,   0.00000,   0.00000  )

     point group C_3v (3m)  
     there are  3 classes
     the character table:

       E     2C3   3s_v 
A_1    1.00  1.00  1.00
A_2    1.00  1.00 -1.00
E      2.00 -1.00  0.00

     the symmetry operations in each class and the name of the first element:

     E        1
                                                                 
     2C3      2    3
                                                                 
     3s_v     4    5    6
                                                                 

     Band symmetry, C_3v (3m)   point group:

     e(  1 -  1) =    -62.59813  eV     1   --> A_1  L_1       
     e(  2 -  4) =    -62.58092  eV     3   --> A_1  L_1       
     e(  2 -  4) =    -62.58092  eV     3   --> E    L_3       
     e(  5 -  7) =    -27.16471  eV     3   --> A_1  L_1       
     e(  5 -  7) =    -27.16471  eV     3   --> E    L_3       
     e(  8 -  8) =    -27.00235  eV     1   --> A_1  L_1       
     e(  9 - 11) =    -26.92861  eV     3   --> A_1  L_1       
     e(  9 - 11) =    -26.92861  eV     3   --> E    L_3       
     e( 12 - 14) =    -26.89424  eV     3   --> A_2  L_2       
     e( 12 - 14) =    -26.89424  eV     3   --> E    L_3       
     e( 15 - 16) =    -26.81250  eV     2   --> E    L_3       
     e( 17 - 18) =    -11.49101  eV     2   -->   ?
     e( 19 - 19) =    -11.49084  eV     1   -->   ?
     e( 20 - 21) =    -11.45405  eV     2   -->   ?
     e( 22 - 22) =    -11.45383  eV     1   -->   ?
     e( 23 - 24) =    -11.32666  eV     2   --> E    L_3       
     e( 25 - 25) =    -11.24569  eV     1   --> A_1  L_1       
     e( 26 - 27) =    -11.19085  eV     2   -->   ?
     e( 28 - 28) =    -11.19067  eV     1   -->   ?
     e( 29 - 30) =    -11.13595  eV     2   --> E    L_3       
     e( 31 - 31) =    -11.04868  eV     1   -->   ?
     e( 32 - 33) =    -11.04836  eV     2   -->   ?
     e( 34 - 35) =    -11.03899  eV     2   -->   ?
     e( 36 - 36) =    -11.03880  eV     1   -->   ?
     e( 37 - 37) =     -6.54268  eV     1   --> A_1  L_1       
     e( 38 - 38) =     -4.51866  eV     1   --> A_1  L_1       
     e( 39 - 39) =     -4.07182  eV     1   --> A_1  L_1       
     e( 40 - 41) =     -3.30616  eV     2   -->   ?
     e( 42 - 42) =     -3.30562  eV     1   -->   ?
     e( 43 - 43) =     -2.70726  eV     1   --> A_1  L_1       
     e( 44 - 45) =     -2.10030  eV     2   -->   ?
     e( 46 - 46) =     -2.09955  eV     1   -->   ?
     e( 47 - 48) =     -1.81514  eV     2   -->   ?
     e( 49 - 49) =     -1.81447  eV     1   -->   ?
     e( 50 - 51) =     -1.27647  eV     2   -->   ?
     e( 52 - 52) =     -1.27590  eV     1   -->   ?
     e( 53 - 53) =      1.11694  eV     1   -->   ?
     e( 54 - 55) =      1.11726  eV     2   -->   ?
     e( 56 - 56) =      3.06455  eV     1   --> A_1  L_1       
     e( 57 - 57) =      4.06742  eV     1   -->   ?
     e( 58 - 59) =      4.06777  eV     2   -->   ?
     e( 60 - 60) =      4.36369  eV     1   -->   ?
     e( 61 - 62) =      4.36400  eV     2   -->   ?
     e( 63 - 63) =      4.37198  eV     1   --> A_1  L_1       
     e( 64 - 64) =      5.52001  eV     1   -->   ?
     e( 65 - 66) =      5.52028  eV     2   -->   ?
     e( 67 - 68) =      5.75699  eV     2   -->   ?
     e( 69 - 69) =      5.75745  eV     1   -->   ?
     e( 70 - 71) =      6.45103  eV     2   -->   ?
     e( 72 - 72) =      6.45147  eV     1   -->   ?
     e( 73 - 73) =      7.28618  eV     1   --> A_1  L_1       
     e( 74 - 74) =      7.61094  eV     1   -->   ?
     e( 75 - 76) =      7.61105  eV     2   -->   ?
     e( 77 - 79) =      8.02661  eV     3   --> A_2  L_2       
     e( 77 - 79) =      8.02661  eV     3   --> E    L_3       
     e( 80 - 81) =      8.18910  eV     2   --> E    L_3       
     e( 82 - 83) =      8.98548  eV     2   -->   ?
     e( 84 - 84) =      8.98589  eV     1   -->   ?
     e( 85 - 85) =      9.44648  eV     1   --> A_1  L_1       
     e( 86 - 87) =      9.61523  eV     2   --> E    L_3       
     e( 88 - 90) =      9.97544  eV     3   --> A_1  L_1       
     e( 88 - 90) =      9.97544  eV     3   --> E    L_3       
     e( 91 - 91) =     10.12306  eV     1   -->   ?
     e( 92 - 93) =     10.12325  eV     2   -->   ?
     e( 94 - 95) =     10.16012  eV     2   -->   ?
     e( 96 - 96) =     10.16062  eV     1   -->   ?
     e( 97 - 97) =     10.56110  eV     1   -->   ?
     e( 98 - 99) =     10.56124  eV     2   -->   ?
     e(100 -100) =     10.85679  eV     1   --> A_1  L_1       
     e(101 -102) =     10.96286  eV     2   --> E    L_3       
     e(103 -103) =     11.26563  eV     1   -->   ?
     e(104 -105) =     11.26588  eV     2   -->   ?
     e(106 -107) =     12.01261  eV     2   --> E    L_3       
     e(108 -110) =     13.35435  eV     3   --> A_1  L_1       
     e(108 -110) =     13.35435  eV     3   --> E    L_3       
     e(111 -113) =     13.86066  eV     3   --> A_2  L_2       
     e(111 -113) =     13.86066  eV     3   --> E    L_3       
     e(114 -114) =     13.89542  eV     1   --> A_1  L_1       
     e(115 -117) =     14.33176  eV     3   --> A_1  L_1       
     e(115 -117) =     14.33176  eV     3   --> E    L_3       
     e(118 -119) =     14.50959  eV     2   --> E    L_3       
     e(120 -121) =     14.96335  eV     2   --> E    L_3       
     e(122 -124) =     15.36005  eV     3   --> A_1  L_1       
     e(122 -124) =     15.36005  eV     3   --> E    L_3       
     e(125 -127) =     15.39639  eV     3   --> A_1  L_1       
     e(125 -127) =     15.39639  eV     3   --> E    L_3       
     e(128 -128) =     15.86936  eV     1   -->   ?
     e(129 -130) =     15.86952  eV     2   -->   ?
     e(131 -131) =     16.39080  eV     1   --> A_1  L_1       
     e(132 -134) =     16.44925  eV     3   --> A_2  L_2       
     e(132 -134) =     16.44925  eV     3   --> E    L_3       
     e(135 -135) =     16.94358  eV     1   -->   ?
     e(136 -136) =     16.94368  eV     1   -->   ?
     e(137 -137) =     17.26320  eV     1   --> A_1  L_1       
     e(138 -138) =     17.29757  eV     1   -->   ?
     e(139 -140) =     17.29773  eV     2   -->   ?
     e(141 -143) =     17.67975  eV     3   --> A_2  L_2       
     e(141 -143) =     17.67975  eV     3   --> E    L_3       
     e(144 -144) =     17.85108  eV     1   --> A_1  L_1       
     e(145 -146) =     18.54913  eV     2   -->   ?
     e(147 -147) =     18.54933  eV     1   -->   ?
     e(148 -148) =     18.72223  eV     1   -->   ?
     e(149 -150) =     18.72236  eV     2   -->   ?
     e(151 -152) =     19.46810  eV     2   -->   ?

 **************************************************************************

 **************************************************************************

                    xk=(   0.02500,   0.01443,   0.00000  )

     point group C_s (m)    
     there are  2 classes
     the character table:

       E     s    
A'     1.00  1.00
A''    1.00 -1.00

     the symmetry operations in each class and the name of the first element:

     E        1
                                                                 
     s        2
                                                                 

     Band symmetry, C_s (m)     point group:

     e(  1 -  1) =    -62.59810  eV     1   --> A'             
     e(  2 -  4) =    -62.58093  eV     3   -->   2 A'             
     e(  2 -  4) =    -62.58093  eV     3   --> A''            
     e(  5 -  6) =    -27.16441  eV     2   -->   ?
     e(  7 -  7) =    -27.16416  eV     1   -->   ?
     e(  8 -  8) =    -27.00224  eV     1   --> A'             
     e(  9 -  9) =    -26.92869  eV     1   -->   ?
     e( 10 - 11) =    -26.92858  eV     2   -->   ?
     e( 12 - 13) =    -26.89456  eV     2   -->   ?
     e( 14 - 14) =    -26.89409  eV     1   -->   ?
     e( 15 - 15) =    -26.81304  eV     1   --> A'             
     e( 16 - 16) =    -26.81259  eV     1   --> A''            
     e( 17 - 17) =    -11.49071  eV     1   -->   ?
     e( 18 - 18) =    -11.49049  eV     1   -->   ?
     e( 19 - 19) =    -11.49036  eV     1   -->   ?
     e( 20 - 21) =    -11.45382  eV     2   -->   ?
     e( 22 - 22) =    -11.45349  eV     1   -->   ?
     e( 23 - 23) =    -11.32688  eV     1   --> A'             
     e( 24 - 24) =    -11.32622  eV     1   --> A''            
     e( 25 - 25) =    -11.24538  eV     1   --> A'             
     e( 26 - 26) =    -11.19109  eV     1   -->   ?
     e( 27 - 27) =    -11.19099  eV     1   -->   ?
     e( 28 - 28) =    -11.19068  eV     1   -->   ?
     e( 29 - 29) =    -11.13649  eV     1   -->   ?
     e( 30 - 30) =    -11.13603  eV     1   -->   ?
     e( 31 - 31) =    -11.04891  eV     1   -->   ?
     e( 32 - 33) =    -11.04860  eV     2   -->   ?
     e( 34 - 35) =    -11.03942  eV     2   -->   ?
     e( 36 - 36) =    -11.03920  eV     1   -->   ?
     e( 37 - 37) =     -6.53976  eV     1   --> A'             
     e( 38 - 38) =     -4.51579  eV     1   --> A'             
     e( 39 - 39) =     -4.06879  eV     1   --> A'             
     e( 40 - 40) =     -3.31720  eV     1   --> A'             
     e( 41 - 41) =     -3.30730  eV     1   -->   ?
     e( 42 - 42) =     -3.30698  eV     1   -->   ?
     e( 43 - 43) =     -2.70613  eV     1   --> A'             
     e( 44 - 44) =     -2.10542  eV     1   --> A'             
     e( 45 - 45) =     -2.10053  eV     1   -->   ?
     e( 46 - 46) =     -2.10005  eV     1   -->   ?
     e( 47 - 47) =     -1.81676  eV     1   -->   ?
     e( 48 - 48) =     -1.81496  eV     1   -->   ?
     e( 49 - 49) =     -1.81450  eV     1   --> A'             
     e( 50 - 50) =     -1.28359  eV     1   --> A'             
     e( 51 - 51) =     -1.27703  eV     1   -->   ?
     e( 52 - 52) =     -1.27667  eV     1   -->   ?
     e( 53 - 53) =      1.12291  eV     1   -->   ?
     e( 54 - 54) =      1.12312  eV     1   -->   ?
     e( 55 - 55) =      1.13296  eV     1   --> A'             
     e( 56 - 56) =      3.06666  eV     1   --> A'             
     e( 57 - 57) =      4.07156  eV     1   -->   ?
     e( 58 - 58) =      4.07180  eV     1   -->   ?
     e( 59 - 59) =      4.07378  eV     1   -->   ?
     e( 60 - 60) =      4.36855  eV     1   --> A'             
     e( 61 - 61) =      4.36876  eV     1   -->   ?
     e( 62 - 62) =      4.37515  eV     1   --> A'             
     e( 63 - 63) =      4.37546  eV     1   --> A'             
     e( 64 - 64) =      5.51975  eV     1   -->   ?
     e( 65 - 65) =      5.51993  eV     1   -->   ?
     e( 66 - 66) =      5.52488  eV     1   --> A'             
     e( 67 - 67) =      5.75173  eV     1   --> A'             
     e( 68 - 68) =      5.75612  eV     1   -->   ?
     e( 69 - 69) =      5.75640  eV     1   -->   ?
     e( 70 - 70) =      6.45175  eV     1   -->   ?
     e( 71 - 71) =      6.45197  eV     1   -->   ?
     e( 72 - 72) =      6.45232  eV     1   -->   ?
     e( 73 - 73) =      7.28773  eV     1   --> A'             
     e( 74 - 75) =      7.60960  eV     2   --> A'             
     e( 74 - 75) =      7.60960  eV     2   --> A''            
     e( 76 - 76) =      7.61320  eV     1   --> A''            
     e( 77 - 78) =      8.00771  eV     2   --> A'             
     e( 77 - 78) =      8.00771  eV     2   --> A''            
     e( 79 - 79) =      8.02983  eV     1   --> A''            
     e( 80 - 80) =      8.18132  eV     1   --> A'             
     e( 81 - 81) =      8.19195  eV     1   --> A''            
     e( 82 - 82) =      8.98568  eV     1   -->   ?
     e( 83 - 83) =      8.98649  eV     1   -->   ?
     e( 84 - 84) =      8.98677  eV     1   --> A'             
     e( 85 - 85) =      9.40600  eV     1   --> A'             
     e( 86 - 86) =      9.61033  eV     1   --> A''            
     e( 87 - 87) =      9.65207  eV     1   --> A'             
     e( 88 - 89) =      9.93233  eV     2   --> A'             
     e( 88 - 89) =      9.93233  eV     2   --> A''            
     e( 90 - 90) =      9.97104  eV     1   --> A'             
     e( 91 - 91) =     10.12057  eV     1   --> A''            
     e( 92 - 93) =     10.15380  eV     2   --> A'             
     e( 92 - 93) =     10.15380  eV     2   --> A''            
     e( 94 - 94) =     10.15591  eV     1   --> A'             
     e( 95 - 95) =     10.15988  eV     1   --> A''            
     e( 96 - 96) =     10.16019  eV     1   --> A'             
     e( 97 - 98) =     10.54336  eV     2   --> A'             
     e( 97 - 98) =     10.54336  eV     2   --> A''            
     e( 99 - 99) =     10.56295  eV     1   --> A''            
     e(100 -100) =     10.84317  eV     1   --> A'             
     e(101 -101) =     10.94468  eV     1   --> A'             
     e(102 -102) =     10.95524  eV     1   --> A''            
     e(103 -103) =     11.27276  eV     1   -->   ?
     e(104 -104) =     11.27293  eV     1   -->   ?
     e(105 -105) =     11.27525  eV     1   --> A'             
     e(106 -106) =     11.99298  eV     1   --> A'             
     e(107 -107) =     12.00965  eV     1   --> A''            
     e(108 -108) =     13.35689  eV     1   --> A'             
     e(109 -110) =     13.37451  eV     2   --> A'             
     e(109 -110) =     13.37451  eV     2   --> A''            
     e(111 -111) =     13.85913  eV     1   --> A''            
     e(112 -113) =     13.86124  eV     2   --> A'             
     e(112 -113) =     13.86124  eV     2   --> A''            
     e(114 -114) =     13.91160  eV     1   --> A'             
     e(115 -115) =     14.32306  eV     1   --> A'             
     e(116 -117) =     14.33044  eV     2   --> A'             
     e(116 -117) =     14.33044  eV     2   --> A''            
     e(118 -118) =     14.50270  eV     1   --> A'             
     e(119 -119) =     14.51542  eV     1   --> A''            
     e(120 -120) =     14.95108  eV     1   --> A'             
     e(121 -121) =     14.95897  eV     1   --> A''            
     e(122 -122) =     15.36331  eV     1   --> A'             
     e(123 -124) =     15.37581  eV     2   --> A'             
     e(123 -124) =     15.37581  eV     2   --> A''            
     e(125 -125) =     15.39818  eV     1   --> A'             
     e(126 -127) =     15.40667  eV     2   --> A'             
     e(126 -127) =     15.40667  eV     2   --> A''            
     e(128 -128) =     15.87962  eV     1   -->   ?
     e(129 -129) =     15.87972  eV     1   -->   ?
     e(130 -130) =     15.88986  eV     1   --> A'             
     e(131 -131) =     16.40708  eV     1   --> A'             
     e(132 -133) =     16.43091  eV     2   --> A'             
     e(132 -133) =     16.43091  eV     2   --> A''            
     e(134 -134) =     16.44813  eV     1   --> A''            
     e(135 -135) =     16.93082  eV     1   --> A'             
     e(136 -136) =     16.95336  eV     1   --> A''            
     e(137 -137) =     17.27239  eV     1   --> A'             
     e(138 -138) =     17.30430  eV     1   --> A'             
     e(139 -140) =     17.30682  eV     2   --> A'             
     e(139 -140) =     17.30682  eV     2   --> A''            
     e(141 -142) =     17.65947  eV     2   --> A'             
     e(141 -142) =     17.65947  eV     2   --> A''            
     e(143 -143) =     17.68230  eV     1   --> A''            
     e(144 -144) =     17.86770  eV     1   --> A'             
     e(145 -145) =     18.53228  eV     1   --> A'             
     e(146 -146) =     18.55234  eV     1   -->   ?
     e(147 -147) =     18.55245  eV     1   -->   ?
     e(148 -148) =     18.72315  eV     1   --> A'             
     e(149 -150) =     18.74400  eV     2   --> A'             
     e(149 -150) =     18.74400  eV     2   --> A''            
     e(151 -151) =     19.48078  eV     1   -->   ?
     e(152 -152) =     19.48089  eV     1   -->   ?

 **************************************************************************

 **************************************************************************

                    xk=(   0.05000,   0.02887,   0.00000  )

     Band symmetry, C_s (m)     point group:

     e(  1 -  1) =    -62.59802  eV     1   --> A'             
     e(  2 -  2) =    -62.58098  eV     1   -->   ?
     e(  3 -  4) =    -62.58088  eV     2   -->   ?
     e(  5 -  6) =    -27.16351  eV     2   -->   ?
     e(  7 -  7) =    -27.16258  eV     1   -->   ?
     e(  8 -  8) =    -27.00190  eV     1   --> A'             
     e(  9 -  9) =    -26.92901  eV     1   -->   ?
     e( 10 - 11) =    -26.92859  eV     2   -->   ?
     e( 12 - 13) =    -26.89548  eV     2   --> A'             
     e( 12 - 13) =    -26.89548  eV     2   --> A''            
     e( 14 - 14) =    -26.89371  eV     1   --> A''            
     e( 15 - 15) =    -26.81473  eV     1   --> A'             
     e( 16 - 16) =    -26.81298  eV     1   --> A''            
     e( 17 - 17) =    -11.48993  eV     1   --> A'             
     e( 18 - 18) =    -11.48894  eV     1   -->   ?
     e( 19 - 19) =    -11.48882  eV     1   -->   ?
     e( 20 - 20) =    -11.45312  eV     1   -->   ?
     e( 21 - 21) =    -11.45298  eV     1   -->   ?
     e( 22 - 22) =    -11.45221  eV     1   -->   ?
     e( 23 - 23) =    -11.32756  eV     1   --> A'             
     e( 24 - 24) =    -11.32493  eV     1   --> A''            
     e( 25 - 25) =    -11.24449  eV     1   --> A'             
     e( 26 - 26) =    -11.19181  eV     1   -->   ?
     e( 27 - 27) =    -11.19170  eV     1   -->   ?
     e( 28 - 28) =    -11.19045  eV     1   --> A''            
     e( 29 - 29) =    -11.13815  eV     1   --> A'             
     e( 30 - 30) =    -11.13628  eV     1   --> A''            
     e( 31 - 31) =    -11.04969  eV     1   -->   ?
     e( 32 - 32) =    -11.04934  eV     1   -->   ?
     e( 33 - 33) =    -11.04920  eV     1   -->   ?
     e( 34 - 34) =    -11.04076  eV     1   -->   ?
     e( 35 - 35) =    -11.04041  eV     1   -->   ?
     e( 36 - 36) =    -11.04026  eV     1   -->   ?
     e( 37 - 37) =     -6.53099  eV     1   --> A'             
     e( 38 - 38) =     -4.50717  eV     1   --> A'             
     e( 39 - 39) =     -4.05974  eV     1   --> A'             
     e( 40 - 40) =     -3.35045  eV     1   --> A'             
     e( 41 - 41) =     -3.31077  eV     1   -->   ?
     e( 42 - 42) =     -3.31045  eV     1   -->   ?
     e( 43 - 43) =     -2.70276  eV     1   --> A'             
     e( 44 - 44) =     -2.12138  eV     1   --> A'             
     e( 45 - 45) =     -2.10131  eV     1   -->   ?
     e( 46 - 46) =     -2.10085  eV     1   -->   ?
     e( 47 - 47) =     -1.82216  eV     1   --> A'             
     e( 48 - 48) =     -1.81452  eV     1   --> A''            
     e( 49 - 49) =     -1.81410  eV     1   --> A'             
     e( 50 - 50) =     -1.30533  eV     1   --> A'             
     e( 51 - 51) =     -1.27876  eV     1   -->   ?
     e( 52 - 52) =     -1.27841  eV     1   -->   ?
     e( 53 - 53) =      1.14027  eV     1   -->   ?
     e( 54 - 54) =      1.14047  eV     1   -->   ?
     e( 55 - 55) =      1.17996  eV     1   --> A'             
     e( 56 - 56) =      3.07298  eV     1   --> A'             
     e( 57 - 57) =      4.08363  eV     1   -->   ?
     e( 58 - 58) =      4.08387  eV     1   -->   ?
     e( 59 - 59) =      4.09188  eV     1   --> A'             
     e( 60 - 60) =      4.38271  eV     1   --> A'             
     e( 61 - 61) =      4.38292  eV     1   --> A''            
     e( 62 - 62) =      4.38464  eV     1   --> A'             
     e( 63 - 63) =      4.40999  eV     1   --> A'             
     e( 64 - 64) =      5.51875  eV     1   -->   ?
     e( 65 - 65) =      5.51893  eV     1   -->   ?
     e( 66 - 66) =      5.53883  eV     1   --> A'             
     e( 67 - 67) =      5.73557  eV     1   --> A'             
     e( 68 - 68) =      5.75344  eV     1   -->   ?
     e( 69 - 69) =      5.75371  eV     1   -->   ?
     e( 70 - 70) =      6.45367  eV     1   -->   ?
     e( 71 - 71) =      6.45469  eV     1   -->   ?
     e( 72 - 72) =      6.45498  eV     1   -->   ?
     e( 73 - 73) =      7.29234  eV     1   --> A'             
     e( 74 - 75) =      7.60545  eV     2   --> A'             
     e( 74 - 75) =      7.60545  eV     2   --> A''            
     e( 76 - 76) =      7.61972  eV     1   --> A''            
     e( 77 - 78) =      7.95218  eV     2   --> A'             
     e( 77 - 78) =      7.95218  eV     2   --> A''            
     e( 79 - 79) =      8.03924  eV     1   --> A''            
     e( 80 - 80) =      8.15806  eV     1   --> A'             
     e( 81 - 81) =      8.20049  eV     1   --> A''            
     e( 82 - 82) =      8.98594  eV     1   --> A'             
     e( 83 - 83) =      8.98949  eV     1   -->   ?
     e( 84 - 84) =      8.98974  eV     1   -->   ?
     e( 85 - 85) =      9.32634  eV     1   --> A'             
     e( 86 - 86) =      9.59565  eV     1   --> A''            
     e( 87 - 87) =      9.72063  eV     1   --> A'             
     e( 88 - 89) =      9.84309  eV     2   --> A'             
     e( 88 - 89) =      9.84309  eV     2   --> A''            
     e( 90 - 90) =      9.95782  eV     1   --> A'             
     e( 91 - 91) =     10.11272  eV     1   --> A''            
     e( 92 - 92) =     10.14293  eV     1   --> A'             
     e( 93 - 93) =     10.15884  eV     1   --> A''            
     e( 94 - 94) =     10.15914  eV     1   --> A'             
     e( 95 - 96) =     10.20600  eV     2   --> A'             
     e( 95 - 96) =     10.20600  eV     2   --> A''            
     e( 97 - 98) =     10.49133  eV     2   --> A'             
     e( 97 - 98) =     10.49133  eV     2   --> A''            
     e( 99 - 99) =     10.56817  eV     1   --> A''            
     e(100 -100) =     10.78039  eV     1   --> A'             
     e(101 -101) =     10.91487  eV     1   --> A'             
     e(102 -102) =     10.93236  eV     1   --> A''            
     e(103 -103) =     11.29327  eV     1   -->   ?
     e(104 -104) =     11.29344  eV     1   -->   ?
     e(105 -105) =     11.30374  eV     1   --> A'             
     e(106 -106) =     11.93496  eV     1   --> A'             
     e(107 -107) =     12.00068  eV     1   --> A''            
     e(108 -108) =     13.36419  eV     1   --> A'             
     e(109 -110) =     13.43371  eV     2   --> A'             
     e(109 -110) =     13.43371  eV     2   --> A''            
     e(111 -111) =     13.85461  eV     1   --> A''            
     e(112 -113) =     13.86293  eV     2   --> A'             
     e(112 -113) =     13.86293  eV     2   --> A''            
     e(114 -114) =     13.95629  eV     1   --> A'             
     e(115 -115) =     14.29819  eV     1   --> A'             
     e(116 -117) =     14.32659  eV     2   --> A'             
     e(116 -117) =     14.32659  eV     2   --> A''            
     e(118 -118) =     14.48252  eV     1   --> A'             
     e(119 -119) =     14.53267  eV     1   --> A''            
     e(120 -120) =     14.91673  eV     1   --> A'             
     e(121 -121) =     14.94588  eV     1   --> A''            
     e(122 -122) =     15.36832  eV     1   --> A'             
     e(123 -124) =     15.40180  eV     2   --> A'             
     e(123 -124) =     15.40180  eV     2   --> A''            
     e(125 -125) =     15.40787  eV     1   --> A'             
     e(126 -126) =     15.45656  eV     1   --> A'             
     e(127 -127) =     15.45667  eV     1   --> A''            
     e(128 -128) =     15.90992  eV     1   -->   ?
     e(129 -129) =     15.91002  eV     1   -->   ?
     e(130 -130) =     15.94925  eV     1   --> A'             
     e(131 -132) =     16.37960  eV     2   --> A'             
     e(131 -132) =     16.37960  eV     2   --> A''            
     e(133 -133) =     16.44461  eV     1   --> A''            
     e(134 -134) =     16.45369  eV     1   --> A'             
     e(135 -135) =     16.89320  eV     1   --> A'             
     e(136 -136) =     16.98238  eV     1   --> A''            
     e(137 -137) =     17.30027  eV     1   --> A'             
     e(138 -138) =     17.32413  eV     1   --> A'             
     e(139 -140) =     17.33341  eV     2   --> A'             
     e(139 -140) =     17.33341  eV     2   --> A''            
     e(141 -142) =     17.60114  eV     2   --> A'             
     e(141 -142) =     17.60114  eV     2   --> A''            
     e(143 -143) =     17.68981  eV     1   --> A''            
     e(144 -144) =     17.91625  eV     1   --> A'             
     e(145 -145) =     18.48604  eV     1   --> A'             
     e(146 -146) =     18.56164  eV     1   -->   ?
     e(147 -147) =     18.56175  eV     1   -->   ?
     e(148 -148) =     18.72590  eV     1   --> A'             
     e(149 -150) =     18.80702  eV     2   --> A'             
     e(149 -150) =     18.80702  eV     2   --> A''            
     e(151 -151) =     19.51756  eV     1   -->   ?
     e(152 -152) =     19.51767  eV     1   -->   ?

 **************************************************************************

 **************************************************************************

                    xk=(   0.07500,   0.04330,   0.00000  )

     Band symmetry, C_s (m)     point group:

     e(  1 -  1) =    -62.59789  eV     1   --> A'             
     e(  2 -  2) =    -62.58110  eV     1   -->   ?
     e(  3 -  4) =    -62.58089  eV     2   -->   ?
     e(  5 -  6) =    -27.16204  eV     2   --> A'             
     e(  5 -  6) =    -27.16204  eV     2   --> A''            
     e(  7 -  7) =    -27.15997  eV     1   --> A'             
     e(  8 -  8) =    -27.00134  eV     1   --> A'             
     e(  9 -  9) =    -26.92957  eV     1   -->   ?
     e( 10 - 11) =    -26.92859  eV     2   -->   ?
     e( 12 - 13) =    -26.89703  eV     2   --> A'             
     e( 12 - 13) =    -26.89703  eV     2   --> A''            
     e( 14 - 14) =    -26.89309  eV     1   --> A''            
     e( 15 - 15) =    -26.81751  eV     1   --> A'             
     e( 16 - 16) =    -26.81361  eV     1   --> A''            
     e( 17 - 17) =    -11.48864  eV     1   --> A'             
     e( 18 - 18) =    -11.48637  eV     1   -->   ?
     e( 19 - 19) =    -11.48625  eV     1   -->   ?
     e( 20 - 20) =    -11.45197  eV     1   -->   ?
     e( 21 - 21) =    -11.45182  eV     1   -->   ?
     e( 22 - 22) =    -11.45004  eV     1   --> A'             
     e( 23 - 23) =    -11.32870  eV     1   --> A'             
     e( 24 - 24) =    -11.32279  eV     1   --> A''            
     e( 25 - 25) =    -11.24299  eV     1   --> A'             
     e( 26 - 26) =    -11.19301  eV     1   -->   ?
     e( 27 - 27) =    -11.19289  eV     1   -->   ?
     e( 28 - 28) =    -11.19003  eV     1   --> A''            
     e( 29 - 29) =    -11.14090  eV     1   --> A'             
     e( 30 - 30) =    -11.13670  eV     1   --> A''            
     e( 31 - 31) =    -11.05113  eV     1   -->   ?
     e( 32 - 32) =    -11.05078  eV     1   -->   ?
     e( 33 - 33) =    -11.05066  eV     1   -->   ?
     e( 34 - 34) =    -11.04303  eV     1   --> A''            
     e( 35 - 35) =    -11.04181  eV     1   --> A'             
     e( 36 - 36) =    -11.04164  eV     1   --> A''            
     e( 37 - 37) =     -6.51638  eV     1   --> A'             
     e( 38 - 38) =     -4.49283  eV     1   --> A'             
     e( 39 - 39) =     -4.04468  eV     1   --> A'             
     e( 40 - 40) =     -3.40423  eV     1   --> A'             
     e( 41 - 41) =     -3.31641  eV     1   -->   ?
     e( 42 - 42) =     -3.31610  eV     1   -->   ?
     e( 43 - 43) =     -2.69714  eV     1   --> A'             
     e( 44 - 44) =     -2.14769  eV     1   --> A'             
     e( 45 - 45) =     -2.10260  eV     1   -->   ?
     e( 46 - 46) =     -2.10214  eV     1   -->   ?
     e( 47 - 47) =     -1.83115  eV     1   --> A'             
     e( 48 - 48) =     -1.81381  eV     1   --> A''            
     e( 49 - 49) =     -1.81339  eV     1   --> A'             
     e( 50 - 50) =     -1.34091  eV     1   --> A'             
     e( 51 - 51) =     -1.28160  eV     1   -->   ?
     e( 52 - 52) =     -1.28125  eV     1   -->   ?
     e( 53 - 53) =      1.16896  eV     1   -->   ?
     e( 54 - 54) =      1.16916  eV     1   -->   ?
     e( 55 - 55) =      1.25651  eV     1   --> A'             
     e( 56 - 56) =      3.08347  eV     1   --> A'             
     e( 57 - 57) =      4.10360  eV     1   -->   ?
     e( 58 - 58) =      4.10383  eV     1   -->   ?
     e( 59 - 59) =      4.12170  eV     1   --> A'             
     e( 60 - 60) =      4.40040  eV     1   --> A'             
     e( 61 - 61) =      4.40616  eV     1   --> A'             
     e( 62 - 62) =      4.40637  eV     1   --> A''            
     e( 63 - 63) =      4.46688  eV     1   --> A'             
     e( 64 - 64) =      5.51711  eV     1   -->   ?
     e( 65 - 65) =      5.51729  eV     1   -->   ?
     e( 66 - 66) =      5.56198  eV     1   --> A'             
     e( 67 - 67) =      5.70928  eV     1   --> A'             
     e( 68 - 68) =      5.74891  eV     1   -->   ?
     e( 69 - 69) =      5.74918  eV     1   -->   ?
     e( 70 - 70) =      6.45649  eV     1   --> A'             
     e( 71 - 71) =      6.45917  eV     1   -->   ?
     e( 72 - 72) =      6.45944  eV     1   -->   ?
     e( 73 - 73) =      7.29987  eV     1   --> A'             
     e( 74 - 75) =      7.59853  eV     2   --> A'             
     e( 74 - 75) =      7.59853  eV     2   --> A''            
     e( 76 - 76) =      7.63057  eV     1   --> A''            
     e( 77 - 78) =      7.86357  eV     2   --> A'             
     e( 77 - 78) =      7.86357  eV     2   --> A''            
     e( 79 - 79) =      8.05490  eV     1   --> A''            
     e( 80 - 80) =      8.11982  eV     1   --> A'             
     e( 81 - 81) =      8.21467  eV     1   --> A''            
     e( 82 - 82) =      8.98622  eV     1   --> A'             
     e( 83 - 83) =      8.99462  eV     1   -->   ?
     e( 84 - 84) =      8.99486  eV     1   -->   ?
     e( 85 - 85) =      9.23593  eV     1   --> A'             
     e( 86 - 86) =      9.57153  eV     1   --> A''            
     e( 87 - 88) =      9.73363  eV     2   --> A'             
     e( 87 - 88) =      9.73363  eV     2   --> A''            
     e( 89 - 89) =      9.79223  eV     1   --> A'             
     e( 90 - 90) =      9.93631  eV     1   --> A'             
     e( 91 - 91) =     10.09960  eV     1   --> A''            
     e( 92 - 92) =     10.12184  eV     1   --> A'             
     e( 93 - 93) =     10.15600  eV     1   --> A''            
     e( 94 - 94) =     10.15629  eV     1   --> A'             
     e( 95 - 96) =     10.25529  eV     2   --> A'             
     e( 95 - 96) =     10.25529  eV     2   --> A''            
     e( 97 - 98) =     10.40918  eV     2   --> A'             
     e( 97 - 98) =     10.40918  eV     2   --> A''            
     e( 99 - 99) =     10.57686  eV     1   --> A''            
     e(100 -100) =     10.65029  eV     1   --> A'             
     e(101 -101) =     10.89487  eV     1   --> A''            
     e(102 -102) =     10.89897  eV     1   --> A'             
     e(103 -103) =     11.32585  eV     1   -->   ?
     e(104 -104) =     11.32602  eV     1   -->   ?
     e(105 -105) =     11.35133  eV     1   --> A'             
     e(106 -106) =     11.84104  eV     1   --> A'             
     e(107 -107) =     11.98587  eV     1   --> A''            
     e(108 -108) =     13.37630  eV     1   --> A'             
     e(109 -110) =     13.52782  eV     2   --> A'             
     e(109 -110) =     13.52782  eV     2   --> A''            
     e(111 -111) =     13.84742  eV     1   --> A''            
     e(112 -113) =     13.86612  eV     2   --> A'             
     e(112 -113) =     13.86612  eV     2   --> A''            
     e(114 -114) =     14.01889  eV     1   --> A'             
     e(115 -115) =     14.26069  eV     1   --> A'             
     e(116 -117) =     14.32094  eV     2   --> A'             
     e(116 -117) =     14.32094  eV     2   --> A''            
     e(118 -118) =     14.45074  eV     1   --> A'             
     e(119 -119) =     14.56101  eV     1   --> A''            
     e(120 -120) =     14.86735  eV     1   --> A'             
     e(121 -121) =     14.92439  eV     1   --> A''            
     e(122 -122) =     15.36725  eV     1   --> A'             
     e(123 -124) =     15.42583  eV     2   --> A'             
     e(123 -124) =     15.42583  eV     2   --> A''            
     e(125 -125) =     15.43277  eV     1   --> A'             
     e(126 -126) =     15.55207  eV     1   --> A'             
     e(127 -127) =     15.55218  eV     1   --> A''            
     e(128 -129) =     15.95930  eV     2   --> A'             
     e(128 -129) =     15.95930  eV     2   --> A''            
     e(130 -130) =     16.04313  eV     1   --> A'             
     e(131 -132) =     16.30529  eV     2   --> A'             
     e(131 -132) =     16.30529  eV     2   --> A''            
     e(133 -133) =     16.43869  eV     1   --> A''            
     e(134 -134) =     16.52381  eV     1   --> A'             
     e(135 -135) =     16.83495  eV     1   --> A'             
     e(136 -136) =     17.02984  eV     1   --> A''            
     e(137 -137) =     17.34743  eV     1   --> A'             
     e(138 -138) =     17.35694  eV     1   --> A'             
     e(139 -140) =     17.37562  eV     2   --> A'             
     e(139 -140) =     17.37562  eV     2   --> A''            
     e(141 -142) =     17.51154  eV     2   --> A'             
     e(141 -142) =     17.51154  eV     2   --> A''            
     e(143 -143) =     17.70225  eV     1   --> A''            
     e(144 -144) =     17.99292  eV     1   --> A'             
     e(145 -145) =     18.42043  eV     1   --> A'             
     e(146 -146) =     18.57630  eV     1   -->   ?
     e(147 -147) =     18.57641  eV     1   -->   ?
     e(148 -148) =     18.73134  eV     1   --> A'             
     e(149 -150) =     18.90570  eV     2   --> A'             
     e(149 -150) =     18.90570  eV     2   --> A''            
     e(151 -151) =     19.57538  eV     1   -->   ?
     e(152 -152) =     19.57550  eV     1   -->   ?

 **************************************************************************

 **************************************************************************

                    xk=(   0.10000,   0.05774,   0.00000  )

     Band symmetry, C_s (m)     point group:

     e(  1 -  1) =    -62.59771  eV     1   --> A'             
     e(  2 -  2) =    -62.58128  eV     1   -->   ?
     e(  3 -  4) =    -62.58089  eV     2   -->   ?
     e(  5 -  6) =    -27.16001  eV     2   --> A'             
     e(  5 -  6) =    -27.16001  eV     2   --> A''            
     e(  7 -  7) =    -27.15634  eV     1   --> A'             
     e(  8 -  8) =    -27.00056  eV     1   --> A'             
     e(  9 -  9) =    -26.93036  eV     1   -->   ?
     e( 10 - 11) =    -26.92859  eV     2   -->   ?
     e( 12 - 13) =    -26.89917  eV     2   --> A'             
     e( 12 - 13) =    -26.89917  eV     2   --> A''            
     e( 14 - 14) =    -26.89222  eV     1   --> A''            
     e( 15 - 15) =    -26.82137  eV     1   --> A'             
     e( 16 - 16) =    -26.81448  eV     1   --> A''            
     e( 17 - 17) =    -11.48686  eV     1   --> A'             
     e( 18 - 18) =    -11.48281  eV     1   -->   ?
     e( 19 - 19) =    -11.48270  eV     1   -->   ?
     e( 20 - 20) =    -11.45038  eV     1   -->   ?
     e( 21 - 21) =    -11.45023  eV     1   -->   ?
     e( 22 - 22) =    -11.44701  eV     1   --> A'             
     e( 23 - 23) =    -11.33029  eV     1   --> A'             
     e( 24 - 24) =    -11.31982  eV     1   --> A''            
     e( 25 - 25) =    -11.24089  eV     1   --> A'             
     e( 26 - 26) =    -11.19467  eV     1   -->   ?
     e( 27 - 27) =    -11.19454  eV     1   -->   ?
     e( 28 - 28) =    -11.18945  eV     1   --> A''            
     e( 29 - 29) =    -11.14471  eV     1   --> A'             
     e( 30 - 30) =    -11.13729  eV     1   --> A''            
     e( 31 - 31) =    -11.05356  eV     1   -->   ?
     e( 32 - 32) =    -11.05336  eV     1   -->   ?
     e( 33 - 33) =    -11.05301  eV     1   -->   ?
     e( 34 - 34) =    -11.04619  eV     1   --> A''            
     e( 35 - 35) =    -11.04307  eV     1   --> A'             
     e( 36 - 36) =    -11.04286  eV     1   --> A''            
     e( 37 - 37) =     -6.49594  eV     1   --> A'             
     e( 38 - 38) =     -4.47282  eV     1   --> A'             
     e( 39 - 39) =     -4.02365  eV     1   --> A'             
     e( 40 - 40) =     -3.47633  eV     1   --> A'             
     e( 41 - 41) =     -3.32407  eV     1   -->   ?
     e( 42 - 42) =     -3.32375  eV     1   -->   ?
     e( 43 - 43) =     -2.68930  eV     1   --> A'             
     e( 44 - 44) =     -2.18391  eV     1   --> A'             
     e( 45 - 45) =     -2.10436  eV     1   -->   ?
     e( 46 - 46) =     -2.10390  eV     1   -->   ?
     e( 47 - 47) =     -1.84363  eV     1   --> A'             
     e( 48 - 48) =     -1.81283  eV     1   --> A''            
     e( 49 - 49) =     -1.81242  eV     1   --> A'             
     e( 50 - 50) =     -1.38940  eV     1   --> A'             
     e( 51 - 51) =     -1.28545  eV     1   --> A''            
     e( 52 - 52) =     -1.28511  eV     1   --> A'             
     e( 53 - 53) =      1.20864  eV     1   -->   ?
     e( 54 - 54) =      1.20884  eV     1   -->   ?
     e( 55 - 55) =      1.36023  eV     1   --> A'             
     e( 56 - 56) =      3.09809  eV     1   --> A'             
     e( 57 - 57) =      4.13125  eV     1   -->   ?
     e( 58 - 58) =      4.13148  eV     1   -->   ?
     e( 59 - 59) =      4.16267  eV     1   --> A'             
     e( 60 - 60) =      4.42235  eV     1   --> A'             
     e( 61 - 61) =      4.43866  eV     1   --> A'             
     e( 62 - 62) =      4.43887  eV     1   --> A''            
     e( 63 - 63) =      4.54519  eV     1   --> A'             
     e( 64 - 64) =      5.51491  eV     1   -->   ?
     e( 65 - 65) =      5.51509  eV     1   -->   ?
     e( 66 - 66) =      5.59412  eV     1   --> A'             
     e( 67 - 67) =      5.67383  eV     1   --> A'             
     e( 68 - 68) =      5.74242  eV     1   -->   ?
     e( 69 - 69) =      5.74269  eV     1   -->   ?
     e( 70 - 70) =      6.45981  eV     1   --> A'             
     e( 71 - 71) =      6.46532  eV     1   --> A''            
     e( 72 - 72) =      6.46559  eV     1   --> A'             
     e( 73 - 73) =      7.31010  eV     1   --> A'             
     e( 74 - 75) =      7.58884  eV     2   --> A'             
     e( 74 - 75) =      7.58884  eV     2   --> A''            
     e( 76 - 76) =      7.64573  eV     1   --> A''            
     e( 77 - 78) =      7.74695  eV     2   --> A'             
     e( 77 - 78) =      7.74695  eV     2   --> A''            
     e( 79 - 79) =      8.06737  eV     1   --> A'             
     e( 80 - 80) =      8.07678  eV     1   --> A''            
     e( 81 - 81) =      8.23444  eV     1   --> A''            
     e( 82 - 82) =      8.98637  eV     1   --> A'             
     e( 83 - 83) =      9.00205  eV     1   -->   ?
     e( 84 - 84) =      9.00230  eV     1   -->   ?
     e( 85 - 85) =      9.14137  eV     1   --> A'             
     e( 86 - 86) =      9.53847  eV     1   --> A''            
     e( 87 - 88) =      9.60983  eV     2   --> A'             
     e( 87 - 88) =      9.60983  eV     2   --> A''            
     e( 89 - 89) =      9.85988  eV     1   --> A'             
     e( 90 - 90) =      9.90749  eV     1   --> A'             
     e( 91 - 91) =     10.08119  eV     1   --> A''            
     e( 92 - 92) =     10.09348  eV     1   --> A'             
     e( 93 - 93) =     10.14679  eV     1   --> A''            
     e( 94 - 94) =     10.14706  eV     1   --> A'             
     e( 95 - 96) =     10.29793  eV     2   --> A'             
     e( 95 - 96) =     10.29793  eV     2   --> A''            
     e( 97 - 97) =     10.30589  eV     1   -->   ?
     e( 98 - 98) =     10.30601  eV     1   -->   ?
     e( 99 - 99) =     10.47009  eV     1   --> A'             
     e(100 -100) =     10.58898  eV     1   --> A''            
     e(101 -101) =     10.84369  eV     1   --> A''            
     e(102 -102) =     10.88891  eV     1   --> A'             
     e(103 -103) =     11.36880  eV     1   -->   ?
     e(104 -104) =     11.36896  eV     1   -->   ?
     e(105 -105) =     11.41790  eV     1   --> A'             
     e(106 -106) =     11.71493  eV     1   --> A'             
     e(107 -107) =     11.96542  eV     1   --> A''            
     e(108 -108) =     13.39309  eV     1   --> A'             
     e(109 -110) =     13.64732  eV     2   --> A'             
     e(109 -110) =     13.64732  eV     2   --> A''            
     e(111 -111) =     13.83811  eV     1   --> A''            
     e(112 -113) =     13.87448  eV     2   --> A'             
     e(112 -113) =     13.87448  eV     2   --> A''            
     e(114 -114) =     14.08378  eV     1   --> A'             
     e(115 -115) =     14.21477  eV     1   --> A'             
     e(116 -117) =     14.31457  eV     2   --> A'             
     e(116 -117) =     14.31457  eV     2   --> A''            
     e(118 -118) =     14.40989  eV     1   --> A'             
     e(119 -119) =     14.59983  eV     1   --> A''            
     e(120 -120) =     14.81370  eV     1   --> A'             
     e(121 -121) =     14.89497  eV     1   --> A''            
     e(122 -122) =     15.35986  eV     1   --> A'             
     e(123 -124) =     15.45161  eV     2   --> A'             
     e(123 -124) =     15.45161  eV     2   --> A''            
     e(125 -125) =     15.47218  eV     1   --> A'             
     e(126 -126) =     15.67724  eV     1   --> A'             
     e(127 -127) =     15.67734  eV     1   --> A''            
     e(128 -129) =     16.02603  eV     2   --> A'             
     e(128 -129) =     16.02603  eV     2   --> A''            
     e(130 -130) =     16.16565  eV     1   --> A'             
     e(131 -132) =     16.22287  eV     2   --> A'             
     e(131 -132) =     16.22287  eV     2   --> A''            
     e(133 -133) =     16.43031  eV     1   --> A''            
     e(134 -134) =     16.59910  eV     1   --> A'             
     e(135 -135) =     16.77182  eV     1   --> A'             
     e(136 -136) =     17.09437  eV     1   --> A''            
     e(137 -138) =     17.39975  eV     2   --> A'             
     e(137 -138) =     17.39975  eV     2   --> A''            
     e(139 -139) =     17.40240  eV     1   --> A'             
     e(140 -140) =     17.41418  eV     1   --> A'             
     e(141 -142) =     17.43240  eV     2   --> A'             
     e(141 -142) =     17.43240  eV     2   --> A''            
     e(143 -143) =     17.71953  eV     1   --> A''            
     e(144 -144) =     18.09155  eV     1   --> A'             
     e(145 -145) =     18.34504  eV     1   --> A'             
     e(146 -146) =     18.59540  eV     1   -->   ?
     e(147 -147) =     18.59551  eV     1   -->   ?
     e(148 -148) =     18.74067  eV     1   --> A'             
     e(149 -150) =     19.03272  eV     2   --> A'             
     e(149 -150) =     19.03272  eV     2   --> A''            
     e(151 -151) =     19.65074  eV     1   -->   ?
     e(152 -152) =     19.65085  eV     1   -->   ?

 **************************************************************************

 **************************************************************************

                    xk=(   0.12500,   0.07217,   0.00000  )

     Band symmetry, C_s (m)     point group:

     e(  1 -  1) =    -62.59747  eV     1   --> A'             
     e(  2 -  2) =    -62.58152  eV     1   -->   ?
     e(  3 -  4) =    -62.58089  eV     2   -->   ?
     e(  5 -  6) =    -27.15743  eV     2   --> A'             
     e(  5 -  6) =    -27.15743  eV     2   --> A''            
     e(  7 -  7) =    -27.15169  eV     1   --> A'             
     e(  8 -  8) =    -26.99957  eV     1   --> A'             
     e(  9 -  9) =    -26.93138  eV     1   --> A'             
     e( 10 - 11) =    -26.92859  eV     2   --> A'             
     e( 10 - 11) =    -26.92859  eV     2   --> A''            
     e( 12 - 13) =    -26.90187  eV     2   --> A'             
     e( 12 - 13) =    -26.90187  eV     2   --> A''            
     e( 14 - 14) =    -26.89113  eV     1   --> A''            
     e( 15 - 15) =    -26.82632  eV     1   --> A'             
     e( 16 - 16) =    -26.81561  eV     1   --> A''            
     e( 17 - 17) =    -11.48459  eV     1   --> A'             
     e( 18 - 18) =    -11.47830  eV     1   -->   ?
     e( 19 - 19) =    -11.47818  eV     1   -->   ?
     e( 20 - 20) =    -11.44838  eV     1   -->   ?
     e( 21 - 21) =    -11.44823  eV     1   -->   ?
     e( 22 - 22) =    -11.44315  eV     1   --> A'             
     e( 23 - 23) =    -11.33237  eV     1   --> A'             
     e( 24 - 24) =    -11.31602  eV     1   --> A''            
     e( 25 - 25) =    -11.23820  eV     1   --> A'             
     e( 26 - 26) =    -11.19675  eV     1   -->   ?
     e( 27 - 27) =    -11.19663  eV     1   -->   ?
     e( 28 - 28) =    -11.18871  eV     1   --> A''            
     e( 29 - 29) =    -11.14955  eV     1   --> A'             
     e( 30 - 30) =    -11.13804  eV     1   --> A''            
     e( 31 - 31) =    -11.05763  eV     1   --> A'             
     e( 32 - 32) =    -11.05748  eV     1   -->   ?
     e( 33 - 33) =    -11.05560  eV     1   -->   ?
     e( 34 - 34) =    -11.05022  eV     1   --> A''            
     e( 35 - 35) =    -11.04393  eV     1   --> A'             
     e( 36 - 36) =    -11.04370  eV     1   --> A''            
     e( 37 - 37) =     -6.46968  eV     1   --> A'             
     e( 38 - 38) =     -4.44720  eV     1   --> A'             
     e( 39 - 39) =     -3.99670  eV     1   --> A'             
     e( 40 - 40) =     -3.56414  eV     1   --> A'             
     e( 41 - 41) =     -3.33349  eV     1   -->   ?
     e( 42 - 42) =     -3.33318  eV     1   -->   ?
     e( 43 - 43) =     -2.67926  eV     1   --> A'             
     e( 44 - 44) =     -2.22943  eV     1   --> A'             
     e( 45 - 45) =     -2.10654  eV     1   -->   ?
     e( 46 - 46) =     -2.10608  eV     1   -->   ?
     e( 47 - 47) =     -1.85953  eV     1   --> A'             
     e( 48 - 48) =     -1.81162  eV     1   --> A''            
     e( 49 - 49) =     -1.81121  eV     1   --> A'             
     e( 50 - 50) =     -1.44957  eV     1   --> A'             
     e( 51 - 51) =     -1.29023  eV     1   --> A''            
     e( 52 - 52) =     -1.28988  eV     1   --> A'             
     e( 53 - 53) =      1.25884  eV     1   -->   ?
     e( 54 - 54) =      1.25904  eV     1   -->   ?
     e( 55 - 55) =      1.48821  eV     1   --> A'             
     e( 56 - 56) =      3.11677  eV     1   --> A'             
     e( 57 - 57) =      4.16628  eV     1   -->   ?
     e( 58 - 58) =      4.16651  eV     1   -->   ?
     e( 59 - 59) =      4.21404  eV     1   --> A'             
     e( 60 - 60) =      4.45037  eV     1   --> A'             
     e( 61 - 61) =      4.47989  eV     1   --> A'             
     e( 62 - 62) =      4.48010  eV     1   --> A''            
     e( 63 - 63) =      4.64373  eV     1   --> A'             
     e( 64 - 64) =      5.51224  eV     1   -->   ?
     e( 65 - 65) =      5.51242  eV     1   -->   ?
     e( 66 - 66) =      5.63051  eV     1   --> A'             
     e( 67 - 67) =      5.63503  eV     1   --> A'             
     e( 68 - 68) =      5.73382  eV     1   -->   ?
     e( 69 - 69) =      5.73408  eV     1   -->   ?
     e( 70 - 70) =      6.46302  eV     1   --> A'             
     e( 71 - 71) =      6.47300  eV     1   --> A''            
     e( 72 - 72) =      6.47327  eV     1   --> A'             
     e( 73 - 73) =      7.32267  eV     1   --> A'             
     e( 74 - 75) =      7.57647  eV     2   --> A'             
     e( 74 - 75) =      7.57647  eV     2   --> A''            
     e( 76 - 77) =      7.60816  eV     2   --> A'             
     e( 76 - 77) =      7.60816  eV     2   --> A''            
     e( 78 - 78) =      7.66518  eV     1   --> A''            
     e( 79 - 79) =      8.00168  eV     1   --> A'             
     e( 80 - 80) =      8.10483  eV     1   --> A''            
     e( 81 - 81) =      8.25971  eV     1   --> A''            
     e( 82 - 82) =      8.98612  eV     1   --> A'             
     e( 83 - 83) =      9.01198  eV     1   -->   ?
     e( 84 - 84) =      9.01222  eV     1   -->   ?
     e( 85 - 85) =      9.04493  eV     1   --> A'             
     e( 86 - 87) =      9.47425  eV     2   --> A'             
     e( 86 - 87) =      9.47425  eV     2   --> A''            
     e( 88 - 88) =      9.49711  eV     1   --> A''            
     e( 89 - 89) =      9.87295  eV     1   --> A'             
     e( 90 - 90) =      9.92070  eV     1   --> A'             
     e( 91 - 91) =     10.05744  eV     1   --> A''            
     e( 92 - 92) =     10.05896  eV     1   --> A'             
     e( 93 - 93) =     10.10232  eV     1   --> A''            
     e( 94 - 94) =     10.10248  eV     1   --> A'             
     e( 95 - 95) =     10.21540  eV     1   --> A''            
     e( 96 - 96) =     10.21562  eV     1   --> A'             
     e( 97 - 97) =     10.25418  eV     1   --> A'             
     e( 98 - 99) =     10.33383  eV     2   --> A'             
     e( 98 - 99) =     10.33383  eV     2   --> A''            
     e(100 -100) =     10.60451  eV     1   --> A''            
     e(101 -101) =     10.77998  eV     1   --> A''            
     e(102 -102) =     10.87903  eV     1   --> A'             
     e(103 -103) =     11.42055  eV     1   -->   ?
     e(104 -104) =     11.42071  eV     1   -->   ?
     e(105 -105) =     11.50302  eV     1   --> A'             
     e(106 -106) =     11.56108  eV     1   --> A'             
     e(107 -107) =     11.93959  eV     1   --> A''            
     e(108 -108) =     13.41433  eV     1   --> A'             
     e(109 -110) =     13.75963  eV     2   --> A'             
     e(109 -110) =     13.75963  eV     2   --> A''            
     e(111 -111) =     13.82738  eV     1   --> A''            
     e(112 -113) =     13.91282  eV     2   --> A'             
     e(112 -113) =     13.91282  eV     2   --> A''            
     e(114 -114) =     14.13164  eV     1   --> A'             
     e(115 -115) =     14.16437  eV     1   --> A'             
     e(116 -117) =     14.30894  eV     2   --> A'             
     e(116 -117) =     14.30894  eV     2   --> A''            
     e(118 -118) =     14.36312  eV     1   --> A'             
     e(119 -119) =     14.64835  eV     1   --> A''            
     e(120 -120) =     14.77010  eV     1   --> A'             
     e(121 -121) =     14.85821  eV     1   --> A''            
     e(122 -122) =     15.34745  eV     1   --> A'             
     e(123 -124) =     15.47345  eV     2   --> A'             
     e(123 -124) =     15.47345  eV     2   --> A''            
     e(125 -125) =     15.52360  eV     1   --> A'             
     e(126 -127) =     15.81197  eV     2   --> A'             
     e(126 -127) =     15.81197  eV     2   --> A''            
     e(128 -129) =     16.10749  eV     2   --> A'             
     e(128 -129) =     16.10749  eV     2   --> A''            
     e(130 -131) =     16.15852  eV     2   --> A'             
     e(130 -131) =     16.15852  eV     2   --> A''            
     e(132 -132) =     16.31074  eV     1   --> A'             
     e(133 -133) =     16.41933  eV     1   --> A''            
     e(134 -134) =     16.59728  eV     1   --> A'             
     e(135 -135) =     16.78408  eV     1   --> A'             
     e(136 -136) =     17.17418  eV     1   --> A''            
     e(137 -138) =     17.27599  eV     2   --> A'             
     e(137 -138) =     17.27599  eV     2   --> A''            
     e(139 -139) =     17.46003  eV     1   --> A'             
     e(140 -140) =     17.50063  eV     1   --> A'             
     e(141 -142) =     17.50400  eV     2   --> A'             
     e(141 -142) =     17.50400  eV     2   --> A''            
     e(143 -143) =     17.74149  eV     1   --> A''            
     e(144 -144) =     18.20377  eV     1   --> A'             
     e(145 -145) =     18.26705  eV     1   --> A'             
     e(146 -146) =     18.61797  eV     1   -->   ?
     e(147 -147) =     18.61808  eV     1   -->   ?
     e(148 -148) =     18.75544  eV     1   --> A'             
     e(149 -150) =     19.18058  eV     2   --> A'             
     e(149 -150) =     19.18058  eV     2   --> A''            
     e(151 -151) =     19.70339  eV     1   --> A'             
     e(152 -152) =     19.74059  eV     1   -->   ?

 **************************************************************************

 **************************************************************************

                    xk=(   0.15000,   0.08660,   0.00000  )

     Band symmetry, C_s (m)     point group:

     e(  1 -  1) =    -62.59719  eV     1   --> A'             
     e(  2 -  2) =    -62.58180  eV     1   -->   ?
     e(  3 -  4) =    -62.58090  eV     2   -->   ?
     e(  5 -  6) =    -27.15434  eV     2   --> A'             
     e(  5 -  6) =    -27.15434  eV     2   --> A''            
     e(  7 -  7) =    -27.14608  eV     1   --> A'             
     e(  8 -  8) =    -26.99836  eV     1   --> A'             
     e(  9 -  9) =    -26.93260  eV     1   --> A'             
     e( 10 - 11) =    -26.92859  eV     2   --> A'             
     e( 10 - 11) =    -26.92859  eV     2   --> A''            
     e( 12 - 13) =    -26.90511  eV     2   --> A'             
     e( 12 - 13) =    -26.90511  eV     2   --> A''            
     e( 14 - 14) =    -26.88980  eV     1   --> A''            
     e( 15 - 15) =    -26.83230  eV     1   --> A'             
     e( 16 - 16) =    -26.81695  eV     1   --> A''            
     e( 17 - 17) =    -11.48184  eV     1   --> A'             
     e( 18 - 18) =    -11.47287  eV     1   -->   ?
     e( 19 - 19) =    -11.47275  eV     1   -->   ?
     e( 20 - 20) =    -11.44599  eV     1   -->   ?
     e( 21 - 21) =    -11.44583  eV     1   -->   ?
     e( 22 - 22) =    -11.43845  eV     1   --> A'             
     e( 23 - 23) =    -11.33490  eV     1   --> A'             
     e( 24 - 24) =    -11.31143  eV     1   --> A''            
     e( 25 - 25) =    -11.23492  eV     1   --> A'             
     e( 26 - 26) =    -11.19924  eV     1   -->   ?
     e( 27 - 27) =    -11.19911  eV     1   -->   ?
     e( 28 - 28) =    -11.18781  eV     1   --> A''            
     e( 29 - 29) =    -11.15539  eV     1   --> A'             
     e( 30 - 30) =    -11.13894  eV     1   --> A''            
     e( 31 - 31) =    -11.06305  eV     1   -->   ?
     e( 32 - 32) =    -11.06292  eV     1   -->   ?
     e( 33 - 33) =    -11.05872  eV     1   --> A'             
     e( 34 - 34) =    -11.05510  eV     1   --> A''            
     e( 35 - 35) =    -11.04446  eV     1   --> A'             
     e( 36 - 36) =    -11.04421  eV     1   --> A''            
     e( 37 - 37) =     -6.43760  eV     1   --> A'             
     e( 38 - 38) =     -4.41605  eV     1   --> A'             
     e( 39 - 39) =     -3.96390  eV     1   --> A'             
     e( 40 - 40) =     -3.66492  eV     1   --> A'             
     e( 41 - 41) =     -3.34439  eV     1   -->   ?
     e( 42 - 42) =     -3.34409  eV     1   -->   ?
     e( 43 - 43) =     -2.66705  eV     1   --> A'             
     e( 44 - 44) =     -2.28355  eV     1   --> A'             
     e( 45 - 45) =     -2.10908  eV     1   -->   ?
     e( 46 - 46) =     -2.10862  eV     1   -->   ?
     e( 47 - 47) =     -1.87877  eV     1   --> A'             
     e( 48 - 48) =     -1.81021  eV     1   --> A''            
     e( 49 - 49) =     -1.80979  eV     1   --> A'             
     e( 50 - 50) =     -1.52001  eV     1   --> A'             
     e( 51 - 51) =     -1.29578  eV     1   --> A''            
     e( 52 - 52) =     -1.29544  eV     1   --> A'             
     e( 53 - 53) =      1.31895  eV     1   -->   ?
     e( 54 - 54) =      1.31915  eV     1   -->   ?
     e( 55 - 55) =      1.63728  eV     1   --> A'             
     e( 56 - 56) =      3.13939  eV     1   --> A'             
     e( 57 - 57) =      4.20827  eV     1   -->   ?
     e( 58 - 58) =      4.20851  eV     1   -->   ?
     e( 59 - 59) =      4.27491  eV     1   --> A'             
     e( 60 - 60) =      4.48428  eV     1   --> A'             
     e( 61 - 61) =      4.52941  eV     1   --> A'             
     e( 62 - 62) =      4.52962  eV     1   --> A''            
     e( 63 - 63) =      4.76111  eV     1   --> A'             
     e( 64 - 64) =      5.50918  eV     1   -->   ?
     e( 65 - 65) =      5.50936  eV     1   -->   ?
     e( 66 - 66) =      5.58094  eV     1   --> A'             
     e( 67 - 67) =      5.68437  eV     1   --> A'             
     e( 68 - 68) =      5.72281  eV     1   -->   ?
     e( 69 - 69) =      5.72307  eV     1   -->   ?
     e( 70 - 70) =      6.46531  eV     1   --> A'             
     e( 71 - 71) =      6.48197  eV     1   --> A''            
     e( 72 - 72) =      6.48223  eV     1   --> A'             
     e( 73 - 73) =      7.33707  eV     1   --> A'             
     e( 74 - 75) =      7.45323  eV     2   --> A'             
     e( 74 - 75) =      7.45323  eV     2   --> A''            
     e( 76 - 77) =      7.56153  eV     2   --> A'             
     e( 76 - 77) =      7.56153  eV     2   --> A''            
     e( 78 - 78) =      7.68887  eV     1   --> A''            
     e( 79 - 79) =      7.92396  eV     1   --> A'             
     e( 80 - 80) =      8.13899  eV     1   --> A''            
     e( 81 - 81) =      8.29038  eV     1   --> A''            
     e( 82 - 82) =      8.94794  eV     1   --> A'             
     e( 83 - 83) =      8.98509  eV     1   --> A'             
     e( 84 - 84) =      9.02453  eV     1   -->   ?
     e( 85 - 85) =      9.02477  eV     1   -->   ?
     e( 86 - 87) =      9.32897  eV     2   --> A'             
     e( 86 - 87) =      9.32897  eV     2   --> A''            
     e( 88 - 88) =      9.44821  eV     1   --> A''            
     e( 89 - 89) =      9.83489  eV     1   --> A'             
     e( 90 - 90) =      9.97265  eV     1   --> A'             
     e( 91 - 92) =      9.97892  eV     2   --> A'             
     e( 91 - 92) =      9.97892  eV     2   --> A''            
     e( 93 - 93) =     10.01190  eV     1   --> A'             
     e( 94 - 94) =     10.01969  eV     1   --> A'             
     e( 95 - 95) =     10.02834  eV     1   --> A''            
     e( 96 - 96) =     10.18639  eV     1   --> A''            
     e( 97 - 97) =     10.18668  eV     1   --> A'             
     e( 98 - 99) =     10.36359  eV     2   --> A'             
     e( 98 - 99) =     10.36359  eV     2   --> A''            
     e(100 -100) =     10.62341  eV     1   --> A''            
     e(101 -101) =     10.70509  eV     1   --> A''            
     e(102 -102) =     10.86726  eV     1   --> A'             
     e(103 -103) =     11.38430  eV     1   --> A'             
     e(104 -104) =     11.48000  eV     1   -->   ?
     e(105 -105) =     11.48017  eV     1   -->   ?
     e(106 -106) =     11.60582  eV     1   --> A'             
     e(107 -107) =     11.90871  eV     1   --> A''            
     e(108 -108) =     13.43957  eV     1   --> A'             
     e(109 -110) =     13.80020  eV     2   --> A'             
     e(109 -110) =     13.80020  eV     2   --> A''            
     e(111 -111) =     13.81601  eV     1   --> A''            
     e(112 -113) =     14.03557  eV     2   --> A'             
     e(112 -113) =     14.03557  eV     2   --> A''            
     e(114 -114) =     14.11275  eV     1   --> A'             
     e(115 -115) =     14.14348  eV     1   --> A'             
     e(116 -117) =     14.30655  eV     2   --> A'             
     e(116 -117) =     14.30655  eV     2   --> A''            
     e(118 -118) =     14.31388  eV     1   --> A'             
     e(119 -119) =     14.70561  eV     1   --> A''            
     e(120 -120) =     14.75105  eV     1   --> A'             
     e(121 -121) =     14.81488  eV     1   --> A''            
     e(122 -122) =     15.33009  eV     1   --> A'             
     e(123 -124) =     15.47848  eV     2   --> A'             
     e(123 -124) =     15.47848  eV     2   --> A''            
     e(125 -125) =     15.58560  eV     1   --> A'             
     e(126 -127) =     15.90366  eV     2   --> A'             
     e(126 -127) =     15.90366  eV     2   --> A''            
     e(128 -129) =     16.17572  eV     2   --> A'             
     e(128 -129) =     16.17572  eV     2   --> A''            
     e(130 -131) =     16.19964  eV     2   --> A'             
     e(130 -131) =     16.19964  eV     2   --> A''            
     e(132 -132) =     16.40565  eV     1   --> A''            
     e(133 -133) =     16.47250  eV     1   --> A'             
     e(134 -134) =     16.50467  eV     1   --> A'             
     e(135 -135) =     16.88356  eV     1   --> A'             
     e(136 -137) =     17.15178  eV     2   --> A'             
     e(136 -137) =     17.15178  eV     2   --> A''            
     e(138 -138) =     17.26708  eV     1   --> A''            
     e(139 -139) =     17.52924  eV     1   --> A'             
     e(140 -141) =     17.59180  eV     2   --> A'             
     e(140 -141) =     17.59180  eV     2   --> A''            
     e(142 -142) =     17.60675  eV     1   --> A'             
     e(143 -143) =     17.76795  eV     1   --> A''            
     e(144 -144) =     18.19167  eV     1   --> A'             
     e(145 -145) =     18.31898  eV     1   --> A'             
     e(146 -146) =     18.64305  eV     1   -->   ?
     e(147 -147) =     18.64316  eV     1   -->   ?
     e(148 -148) =     18.77744  eV     1   --> A'             
     e(149 -150) =     19.34237  eV     2   --> A'             
     e(149 -150) =     19.34237  eV     2   --> A''            
     e(151 -151) =     19.71799  eV     1   --> A'             
     e(152 -152) =     19.84254  eV     1   -->   ?

 **************************************************************************

 **************************************************************************

                    xk=(   0.17500,   0.10104,   0.00000  )

     Band symmetry, C_s (m)     point group:

     e(  1 -  1) =    -62.59686  eV     1   --> A'             
     e(  2 -  2) =    -62.58213  eV     1   -->   ?
     e(  3 -  4) =    -62.58090  eV     2   -->   ?
     e(  5 -  6) =    -27.15078  eV     2   --> A'             
     e(  5 -  6) =    -27.15078  eV     2   --> A''            
     e(  7 -  7) =    -27.13952  eV     1   --> A'             
     e(  8 -  8) =    -26.99696  eV     1   --> A'             
     e(  9 -  9) =    -26.93402  eV     1   --> A'             
     e( 10 - 11) =    -26.92860  eV     2   --> A'             
     e( 10 - 11) =    -26.92860  eV     2   --> A''            
     e( 12 - 13) =    -26.90884  eV     2   --> A'             
     e( 12 - 13) =    -26.90884  eV     2   --> A''            
     e( 14 - 14) =    -26.88824  eV     1   --> A''            
     e( 15 - 15) =    -26.83926  eV     1   --> A'             
     e( 16 - 16) =    -26.81854  eV     1   --> A''            
     e( 17 - 17) =    -11.47864  eV     1   --> A'             
     e( 18 - 18) =    -11.46660  eV     1   -->   ?
     e( 19 - 19) =    -11.46648  eV     1   -->   ?
     e( 20 - 20) =    -11.44326  eV     1   -->   ?
     e( 21 - 21) =    -11.44310  eV     1   -->   ?
     e( 22 - 22) =    -11.43295  eV     1   --> A'             
     e( 23 - 23) =    -11.33788  eV     1   --> A'             
     e( 24 - 24) =    -11.30607  eV     1   --> A''            
     e( 25 - 25) =    -11.23108  eV     1   --> A'             
     e( 26 - 26) =    -11.20209  eV     1   -->   ?
     e( 27 - 27) =    -11.20196  eV     1   -->   ?
     e( 28 - 28) =    -11.18676  eV     1   --> A''            
     e( 29 - 29) =    -11.16218  eV     1   --> A'             
     e( 30 - 30) =    -11.14000  eV     1   --> A''            
     e( 31 - 31) =    -11.06959  eV     1   -->   ?
     e( 32 - 32) =    -11.06946  eV     1   -->   ?
     e( 33 - 33) =    -11.06236  eV     1   --> A'             
     e( 34 - 34) =    -11.06079  eV     1   --> A''            
     e( 35 - 35) =    -11.04478  eV     1   --> A'             
     e( 36 - 36) =    -11.04453  eV     1   --> A''            
     e( 37 - 37) =     -6.39974  eV     1   --> A'             
     e( 38 - 38) =     -4.37947  eV     1   --> A'             
     e( 39 - 39) =     -3.92533  eV     1   --> A'             
     e( 40 - 40) =     -3.77603  eV     1   --> A'             
     e( 41 - 41) =     -3.35646  eV     1   -->   ?
     e( 42 - 42) =     -3.35616  eV     1   -->   ?
     e( 43 - 43) =     -2.65272  eV     1   --> A'             
     e( 44 - 44) =     -2.34548  eV     1   --> A'             
     e( 45 - 45) =     -2.11192  eV     1   -->   ?
     e( 46 - 46) =     -2.11147  eV     1   -->   ?
     e( 47 - 47) =     -1.90135  eV     1   --> A'             
     e( 48 - 48) =     -1.80862  eV     1   --> A''            
     e( 49 - 49) =     -1.80821  eV     1   --> A'             
     e( 50 - 50) =     -1.59912  eV     1   --> A'             
     e( 51 - 51) =     -1.30197  eV     1   --> A''            
     e( 52 - 52) =     -1.30163  eV     1   --> A'             
     e( 53 - 53) =      1.38822  eV     1   -->   ?
     e( 54 - 54) =      1.38842  eV     1   -->   ?
     e( 55 - 55) =      1.80419  eV     1   --> A'             
     e( 56 - 56) =      3.16583  eV     1   --> A'             
     e( 57 - 57) =      4.25671  eV     1   -->   ?
     e( 58 - 58) =      4.25695  eV     1   -->   ?
     e( 59 - 59) =      4.34415  eV     1   --> A'             
     e( 60 - 60) =      4.52386  eV     1   --> A'             
     e( 61 - 61) =      4.58668  eV     1   --> A'             
     e( 62 - 62) =      4.58690  eV     1   --> A''            
     e( 63 - 63) =      4.89587  eV     1   --> A'             
     e( 64 - 64) =      5.50585  eV     1   -->   ?
     e( 65 - 65) =      5.50603  eV     1   -->   ?
     e( 66 - 66) =      5.52703  eV     1   --> A'             
     e( 67 - 67) =      5.70896  eV     1   -->   ?
     e( 68 - 68) =      5.70922  eV     1   -->   ?
     e( 69 - 69) =      5.74179  eV     1   --> A'             
     e( 70 - 70) =      6.46576  eV     1   --> A'             
     e( 71 - 71) =      6.49179  eV     1   --> A''            
     e( 72 - 72) =      6.49205  eV     1   --> A'             
     e( 73 - 74) =      7.28815  eV     2   --> A'             
     e( 73 - 74) =      7.28815  eV     2   --> A''            
     e( 75 - 75) =      7.35261  eV     1   --> A'             
     e( 76 - 77) =      7.54425  eV     2   --> A'             
     e( 76 - 77) =      7.54425  eV     2   --> A''            
     e( 78 - 78) =      7.71676  eV     1   --> A''            
     e( 79 - 79) =      7.83549  eV     1   --> A'             
     e( 80 - 80) =      8.17920  eV     1   --> A''            
     e( 81 - 81) =      8.32630  eV     1   --> A''            
     e( 82 - 82) =      8.85143  eV     1   --> A'             
     e( 83 - 83) =      8.98274  eV     1   --> A'             
     e( 84 - 84) =      9.03972  eV     1   -->   ?
     e( 85 - 85) =      9.03995  eV     1   -->   ?
     e( 86 - 87) =      9.17601  eV     2   --> A'             
     e( 86 - 87) =      9.17601  eV     2   --> A''            
     e( 88 - 88) =      9.39259  eV     1   --> A''            
     e( 89 - 89) =      9.75003  eV     1   --> A'             
     e( 90 - 90) =      9.79594  eV     1   --> A'             
     e( 91 - 92) =      9.82071  eV     2   --> A'             
     e( 91 - 92) =      9.82071  eV     2   --> A''            
     e( 93 - 93) =      9.97733  eV     1   --> A'             
     e( 94 - 94) =      9.99388  eV     1   --> A''            
     e( 95 - 95) =     10.01373  eV     1   --> A'             
     e( 96 - 96) =     10.17947  eV     1   --> A''            
     e( 97 - 97) =     10.17977  eV     1   --> A'             
     e( 98 - 99) =     10.38791  eV     2   --> A'             
     e( 98 - 99) =     10.38791  eV     2   --> A''            
     e(100 -100) =     10.62044  eV     1   --> A''            
     e(101 -101) =     10.64563  eV     1   --> A''            
     e(102 -102) =     10.85238  eV     1   --> A'             
     e(103 -103) =     11.18960  eV     1   --> A'             
     e(104 -104) =     11.54644  eV     1   -->   ?
     e(105 -105) =     11.54661  eV     1   -->   ?
     e(106 -106) =     11.72502  eV     1   --> A'             
     e(107 -107) =     11.87316  eV     1   --> A''            
     e(108 -108) =     13.46800  eV     1   --> A'             
     e(109 -110) =     13.79868  eV     2   --> A'             
     e(109 -110) =     13.79868  eV     2   --> A''            
     e(111 -111) =     13.80492  eV     1   --> A''            
     e(112 -112) =     14.06277  eV     1   --> A'             
     e(113 -113) =     14.11184  eV     1   --> A'             
     e(114 -115) =     14.19242  eV     2   --> A'             
     e(114 -115) =     14.19242  eV     2   --> A''            
     e(116 -116) =     14.26565  eV     1   --> A'             
     e(117 -118) =     14.31889  eV     2   --> A'             
     e(117 -118) =     14.31889  eV     2   --> A''            
     e(119 -119) =     14.76042  eV     1   --> A'             
     e(120 -120) =     14.76563  eV     1   --> A''            
     e(121 -121) =     14.77071  eV     1   --> A''            
     e(122 -122) =     15.30731  eV     1   --> A'             
     e(123 -124) =     15.44999  eV     2   --> A'             
     e(123 -124) =     15.44999  eV     2   --> A''            
     e(125 -125) =     15.65719  eV     1   --> A'             
     e(126 -127) =     15.92793  eV     2   --> A'             
     e(126 -127) =     15.92793  eV     2   --> A''            
     e(128 -129) =     16.29584  eV     2   --> A'             
     e(128 -129) =     16.29584  eV     2   --> A''            
     e(130 -131) =     16.31158  eV     2   --> A'             
     e(130 -131) =     16.31158  eV     2   --> A''            
     e(132 -132) =     16.38911  eV     1   --> A''            
     e(133 -133) =     16.39028  eV     1   --> A'             
     e(134 -134) =     16.64497  eV     1   --> A'             
     e(135 -135) =     16.99887  eV     1   --> A'             
     e(136 -137) =     17.04187  eV     2   --> A'             
     e(136 -137) =     17.04187  eV     2   --> A''            
     e(138 -138) =     17.37054  eV     1   --> A''            
     e(139 -139) =     17.60932  eV     1   --> A'             
     e(140 -141) =     17.69804  eV     2   --> A'             
     e(140 -141) =     17.69804  eV     2   --> A''            
     e(142 -142) =     17.73230  eV     1   --> A'             
     e(143 -143) =     17.79867  eV     1   --> A''            
     e(144 -144) =     18.12321  eV     1   --> A'             
     e(145 -145) =     18.42424  eV     1   --> A'             
     e(146 -146) =     18.66969  eV     1   --> A''            
     e(147 -147) =     18.66979  eV     1   --> A'             
     e(148 -148) =     18.80855  eV     1   --> A'             
     e(149 -150) =     19.51174  eV     2   --> A'             
     e(149 -150) =     19.51174  eV     2   --> A''            
     e(151 -151) =     19.73177  eV     1   --> A'             
     e(152 -152) =     19.95453  eV     1   --> A''            

 **************************************************************************

 **************************************************************************

                    xk=(   0.20000,   0.11547,   0.00000  )

     Band symmetry, C_s (m)     point group:

     e(  1 -  1) =    -62.59648  eV     1   --> A'             
     e(  2 -  2) =    -62.58251  eV     1   -->   ?
     e(  3 -  4) =    -62.58090  eV     2   -->   ?
     e(  5 -  6) =    -27.14679  eV     2   --> A'             
     e(  5 -  6) =    -27.14679  eV     2   --> A''            
     e(  7 -  7) =    -27.13205  eV     1   --> A'             
     e(  8 -  8) =    -26.99536  eV     1   --> A'             
     e(  9 -  9) =    -26.93563  eV     1   --> A'             
     e( 10 - 11) =    -26.92860  eV     2   --> A'             
     e( 10 - 11) =    -26.92860  eV     2   --> A''            
     e( 12 - 13) =    -26.91303  eV     2   --> A'             
     e( 12 - 13) =    -26.91303  eV     2   --> A''            
     e( 14 - 14) =    -26.88647  eV     1   --> A''            
     e( 15 - 15) =    -26.84717  eV     1   --> A'             
     e( 16 - 16) =    -26.82034  eV     1   --> A''            
     e( 17 - 17) =    -11.47500  eV     1   --> A'             
     e( 18 - 18) =    -11.45956  eV     1   -->   ?
     e( 19 - 19) =    -11.45943  eV     1   -->   ?
     e( 20 - 20) =    -11.44021  eV     1   -->   ?
     e( 21 - 21) =    -11.44005  eV     1   -->   ?
     e( 22 - 22) =    -11.42666  eV     1   --> A'             
     e( 23 - 23) =    -11.34131  eV     1   --> A'             
     e( 24 - 24) =    -11.29997  eV     1   --> A''            
     e( 25 - 25) =    -11.22669  eV     1   --> A'             
     e( 26 - 26) =    -11.20526  eV     1   -->   ?
     e( 27 - 27) =    -11.20512  eV     1   -->   ?
     e( 28 - 28) =    -11.18556  eV     1   --> A''            
     e( 29 - 29) =    -11.16985  eV     1   --> A'             
     e( 30 - 30) =    -11.14119  eV     1   --> A''            
     e( 31 - 31) =    -11.07707  eV     1   -->   ?
     e( 32 - 32) =    -11.07694  eV     1   -->   ?
     e( 33 - 33) =    -11.06724  eV     1   --> A''            
     e( 34 - 34) =    -11.06649  eV     1   --> A'             
     e( 35 - 35) =    -11.04500  eV     1   --> A'             
     e( 36 - 36) =    -11.04475  eV     1   --> A''            
     e( 37 - 37) =     -6.35610  eV     1   --> A'             
     e( 38 - 38) =     -4.33758  eV     1   --> A'             
     e( 39 - 39) =     -3.89503  eV     1   --> A'             
     e( 40 - 40) =     -3.88110  eV     1   --> A'             
     e( 41 - 41) =     -3.36936  eV     1   -->   ?
[...]
     e(107 -107) =     12.76406  eV     1   --> E              
     e(108 -110) =     13.23745  eV     3   --> A              
     e(108 -110) =     13.23745  eV     3   --> E              
     e(108 -110) =     13.23745  eV     3   --> E*             
     e(111 -113) =     14.05056  eV     3   --> A              
     e(111 -113) =     14.05056  eV     3   --> E              
     e(111 -113) =     14.05056  eV     3   --> E*             
     e(114 -116) =     14.09743  eV     3   --> A              
     e(114 -116) =     14.09743  eV     3   --> E              
     e(114 -116) =     14.09743  eV     3   --> E*             
     e(117 -119) =     14.27969  eV     3   --> A              
     e(117 -119) =     14.27969  eV     3   --> E              
     e(117 -119) =     14.27969  eV     3   --> E*             
     e(120 -120) =     14.46006  eV     1   --> A              
     e(121 -121) =     15.25614  eV     1   --> E*             
     e(122 -122) =     15.56865  eV     1   -->   ?
     e(123 -124) =     15.56880  eV     2   -->   ?
     e(125 -127) =     16.19980  eV     3   --> A              
     e(125 -127) =     16.19980  eV     3   --> E              
     e(125 -127) =     16.19980  eV     3   --> E*             
     e(128 -128) =     17.10691  eV     1   -->   ?
     e(129 -130) =     17.10704  eV     2   -->   ?
     e(131 -131) =     17.15497  eV     1   --> E*             
     e(132 -132) =     17.55191  eV     1   --> A              
     e(133 -133) =     17.71078  eV     1   --> E              
     e(134 -134) =     17.99209  eV     1   --> E*             
     e(135 -135) =     18.48484  eV     1   -->   ?
     e(136 -137) =     18.48500  eV     2   -->   ?
     e(138 -140) =     18.56311  eV     3   --> A              
     e(138 -140) =     18.56311  eV     3   --> E              
     e(138 -140) =     18.56311  eV     3   --> E*             
     e(141 -141) =     18.61756  eV     1   --> E              
     e(142 -144) =     19.11603  eV     3   --> A              
     e(142 -144) =     19.11603  eV     3   --> E              
     e(142 -144) =     19.11603  eV     3   --> E*             
     e(145 -146) =     19.32182  eV     2   -->   ?
     e(147 -147) =     19.32203  eV     1   -->   ?
     e(148 -150) =     19.78493  eV     3   --> A              
     e(148 -150) =     19.78493  eV     3   --> E              
     e(148 -150) =     19.78493  eV     3   --> E*             
     e(151 -151) =     20.08701  eV     1   --> A              
     e(152 -152) =     20.57539  eV     1   -->   ?

 **************************************************************************

 **************************************************************************

                    xk=(   0.66667,   0.00000,   0.22668  )

     Band symmetry, C_3 (3)     point group:

     e(  1 -  3) =    -62.58740  eV     3   --> A              
     e(  1 -  3) =    -62.58740  eV     3   --> E              
     e(  1 -  3) =    -62.58740  eV     3   --> E*             
     e(  4 -  4) =    -62.57870  eV     1   --> E              
     e(  5 -  5) =    -27.08139  eV     1   --> E*             
     e(  6 -  6) =    -27.03421  eV     1   --> A              
     e(  7 -  9) =    -27.01892  eV     3   --> A              
     e(  7 -  9) =    -27.01892  eV     3   --> E              
     e(  7 -  9) =    -27.01892  eV     3   --> E*             
     e( 10 - 12) =    -26.95641  eV     3   --> A              
     e( 10 - 12) =    -26.95641  eV     3   --> E              
     e( 10 - 12) =    -26.95641  eV     3   --> E*             
     e( 13 - 13) =    -26.91934  eV     1   --> E              
     e( 14 - 16) =    -26.88072  eV     3   --> A              
     e( 14 - 16) =    -26.88072  eV     3   --> E              
     e( 14 - 16) =    -26.88072  eV     3   --> E*             
     e( 17 - 17) =    -11.41020  eV     1   --> E              
     e( 18 - 18) =    -11.38769  eV     1   -->   ?
     e( 19 - 19) =    -11.38757  eV     1   -->   ?
     e( 20 - 20) =    -11.38747  eV     1   -->   ?
     e( 21 - 21) =    -11.33118  eV     1   -->   ?
     e( 22 - 23) =    -11.33105  eV     2   -->   ?
     e( 24 - 24) =    -11.32417  eV     1   --> E              
     e( 25 - 25) =    -11.27903  eV     1   --> A              
     e( 26 - 28) =    -11.21513  eV     3   --> A              
     e( 26 - 28) =    -11.21513  eV     3   --> E              
     e( 26 - 28) =    -11.21513  eV     3   --> E*             
     e( 29 - 29) =    -11.18304  eV     1   -->   ?
     e( 30 - 30) =    -11.18293  eV     1   -->   ?
     e( 31 - 31) =    -11.18279  eV     1   -->   ?
     e( 32 - 32) =    -11.17129  eV     1   --> A              
     e( 33 - 33) =    -11.09720  eV     1   -->   ?
     e( 34 - 35) =    -11.09702  eV     2   -->   ?
     e( 36 - 36) =    -11.05745  eV     1   --> E*             
     e( 37 - 38) =     -5.03620  eV     2   --> A              
     e( 37 - 38) =     -5.03620  eV     2   -->   ?
     e( 39 - 39) =     -5.03568  eV     1   -->   ?
     e( 40 - 41) =     -3.19669  eV     2   --> A              
     e( 40 - 41) =     -3.19669  eV     2   -->   ?
     e( 42 - 42) =     -3.19598  eV     1   -->   ?
     e( 43 - 43) =     -2.64714  eV     1   --> E              
     e( 44 - 45) =     -2.62415  eV     2   --> A              
     e( 44 - 45) =     -2.62415  eV     2   -->   ?
     e( 46 - 46) =     -2.62361  eV     1   -->   ?
     e( 47 - 48) =     -2.19645  eV     2   -->   ?
     e( 49 - 49) =     -2.19576  eV     1   -->   ?
     e( 50 - 50) =     -1.72626  eV     1   --> E*             
     e( 51 - 51) =     -1.61567  eV     1   --> E*             
     e( 52 - 52) =     -0.81093  eV     1   --> E              
     e( 53 - 53) =      1.87204  eV     1   --> E*             
     e( 54 - 55) =      3.69867  eV     2   -->   ?
     e( 56 - 56) =      3.69900  eV     1   -->   ?
     e( 57 - 57) =      3.75136  eV     1   --> A              
     e( 58 - 58) =      4.91636  eV     1   --> A              
     e( 59 - 59) =      5.09339  eV     1   --> E*             
     e( 60 - 60) =      5.28527  eV     1   --> E              
     e( 61 - 62) =      5.36236  eV     2   -->   ?
     e( 63 - 63) =      5.36269  eV     1   -->   ?
     e( 64 - 65) =      5.83207  eV     2   -->   ?
     e( 66 - 66) =      5.83223  eV     1   -->   ?
     e( 67 - 67) =      6.19539  eV     1   --> A              
     e( 68 - 69) =      6.24301  eV     2   -->   ?
     e( 70 - 70) =      6.24321  eV     1   -->   ?
     e( 71 - 71) =      6.47228  eV     1   --> E              
     e( 72 - 73) =      6.94418  eV     2   -->   ?
     e( 74 - 74) =      6.94439  eV     1   -->   ?
     e( 75 - 75) =      7.00273  eV     1   --> A              
     e( 76 - 76) =      7.06169  eV     1   --> E*             
     e( 77 - 79) =      7.21037  eV     3   --> A              
     e( 77 - 79) =      7.21037  eV     3   --> E              
     e( 77 - 79) =      7.21037  eV     3   --> E*             
     e( 80 - 80) =      7.51493  eV     1   -->   ?
     e( 81 - 81) =      7.51515  eV     1   -->   ?
     e( 82 - 82) =      7.51531  eV     1   -->   ?
     e( 83 - 85) =      7.54913  eV     3   --> A              
     e( 83 - 85) =      7.54913  eV     3   --> E              
     e( 83 - 85) =      7.54913  eV     3   --> E*             
     e( 86 - 86) =      7.67846  eV     1   --> E              
     e( 87 - 87) =      8.76199  eV     1   --> E*             
     e( 88 - 88) =      8.78864  eV     1   -->   ?
     e( 89 - 90) =      8.78890  eV     2   -->   ?
     e( 91 - 92) =      8.99349  eV     2   --> A              
     e( 91 - 92) =      8.99349  eV     2   -->   ?
     e( 93 - 93) =      8.99389  eV     1   -->   ?
     e( 94 - 94) =      9.96256  eV     1   -->   ?
     e( 95 - 96) =      9.96277  eV     2   -->   ?
     e( 97 - 97) =     10.09751  eV     1   -->   ?
     e( 98 - 99) =     10.09766  eV     2   -->   ?
     e(100 -102) =     10.26858  eV     3   --> A              
     e(100 -102) =     10.26858  eV     3   --> E              
     e(100 -102) =     10.26858  eV     3   --> E*             
     e(103 -103) =     10.49988  eV     1   --> E              
     e(104 -104) =     11.05808  eV     1   --> A              
     e(105 -105) =     12.62359  eV     1   --> A              
     e(106 -106) =     12.73535  eV     1   --> E*             
     e(107 -107) =     12.76407  eV     1   --> E              
     e(108 -110) =     13.23955  eV     3   --> A              
     e(108 -110) =     13.23955  eV     3   --> E              
     e(108 -110) =     13.23955  eV     3   --> E*             
     e(111 -113) =     14.05914  eV     3   --> A              
     e(111 -113) =     14.05914  eV     3   --> E              
     e(111 -113) =     14.05914  eV     3   --> E*             
     e(114 -114) =     14.08922  eV     1   -->   ?
     e(115 -116) =     14.08933  eV     2   -->   ?
     e(117 -119) =     14.27903  eV     3   --> A              
     e(117 -119) =     14.27903  eV     3   --> E              
     e(117 -119) =     14.27903  eV     3   --> E*             
     e(120 -120) =     14.46258  eV     1   --> A              
     e(121 -121) =     15.25337  eV     1   --> E*             
     e(122 -122) =     15.56776  eV     1   -->   ?
     e(123 -124) =     15.56792  eV     2   -->   ?
     e(125 -127) =     16.19871  eV     3   --> A              
     e(125 -127) =     16.19871  eV     3   --> E              
     e(125 -127) =     16.19871  eV     3   --> E*             
     e(128 -128) =     17.10923  eV     1   -->   ?
     e(129 -130) =     17.10937  eV     2   -->   ?
     e(131 -131) =     17.16226  eV     1   --> E*             
     e(132 -132) =     17.54614  eV     1   --> A              
     e(133 -133) =     17.72803  eV     1   --> E              
     e(134 -134) =     17.98426  eV     1   --> E*             
     e(135 -135) =     18.49055  eV     1   -->   ?
     e(136 -137) =     18.49072  eV     2   -->   ?
     e(138 -140) =     18.56073  eV     3   --> A              
     e(138 -140) =     18.56073  eV     3   --> E              
     e(138 -140) =     18.56073  eV     3   --> E*             
     e(141 -141) =     18.59169  eV     1   --> E              
     e(142 -144) =     19.11172  eV     3   --> A              
     e(142 -144) =     19.11172  eV     3   --> E              
     e(142 -144) =     19.11172  eV     3   --> E*             
     e(145 -146) =     19.31996  eV     2   -->   ?
     e(147 -147) =     19.32018  eV     1   -->   ?
     e(148 -150) =     19.78192  eV     3   --> A              
     e(148 -150) =     19.78192  eV     3   --> E              
     e(148 -150) =     19.78192  eV     3   --> E*             
     e(151 -151) =     20.10396  eV     1   --> A              
     e(152 -152) =     20.61446  eV     1   -->   ?

 **************************************************************************

 **************************************************************************

                    xk=(   0.66667,   0.00000,   0.23861  )

     Band symmetry, C_3 (3)     point group:

     e(  1 -  3) =    -62.58740  eV     3   --> A              
     e(  1 -  3) =    -62.58740  eV     3   --> E              
     e(  1 -  3) =    -62.58740  eV     3   --> E*             
     e(  4 -  4) =    -62.57870  eV     1   --> E              
     e(  5 -  5) =    -27.08138  eV     1   --> E*             
     e(  6 -  6) =    -27.03420  eV     1   --> A              
     e(  7 -  9) =    -27.01892  eV     3   --> A              
     e(  7 -  9) =    -27.01892  eV     3   --> E              
     e(  7 -  9) =    -27.01892  eV     3   --> E*             
     e( 10 - 12) =    -26.95641  eV     3   --> A              
     e( 10 - 12) =    -26.95641  eV     3   --> E              
     e( 10 - 12) =    -26.95641  eV     3   --> E*             
     e( 13 - 13) =    -26.91933  eV     1   --> E              
     e( 14 - 16) =    -26.88072  eV     3   --> A              
     e( 14 - 16) =    -26.88072  eV     3   --> E              
     e( 14 - 16) =    -26.88072  eV     3   --> E*             
     e( 17 - 17) =    -11.41020  eV     1   --> E              
     e( 18 - 18) =    -11.38769  eV     1   -->   ?
     e( 19 - 19) =    -11.38757  eV     1   -->   ?
     e( 20 - 20) =    -11.38747  eV     1   -->   ?
     e( 21 - 21) =    -11.33118  eV     1   -->   ?
     e( 22 - 23) =    -11.33105  eV     2   -->   ?
     e( 24 - 24) =    -11.32416  eV     1   --> E              
     e( 25 - 25) =    -11.27903  eV     1   --> A              
     e( 26 - 28) =    -11.21513  eV     3   --> A              
     e( 26 - 28) =    -11.21513  eV     3   --> E              
     e( 26 - 28) =    -11.21513  eV     3   --> E*             
     e( 29 - 29) =    -11.18304  eV     1   -->   ?
     e( 30 - 30) =    -11.18293  eV     1   -->   ?
     e( 31 - 31) =    -11.18279  eV     1   -->   ?
     e( 32 - 32) =    -11.17128  eV     1   --> A              
     e( 33 - 33) =    -11.09719  eV     1   -->   ?
     e( 34 - 35) =    -11.09702  eV     2   -->   ?
     e( 36 - 36) =    -11.05745  eV     1   --> E*             
     e( 37 - 38) =     -5.03620  eV     2   --> A              
     e( 37 - 38) =     -5.03620  eV     2   -->   ?
     e( 39 - 39) =     -5.03568  eV     1   -->   ?
     e( 40 - 41) =     -3.19672  eV     2   --> A              
     e( 40 - 41) =     -3.19672  eV     2   -->   ?
     e( 42 - 42) =     -3.19601  eV     1   -->   ?
     e( 43 - 43) =     -2.64714  eV     1   --> E              
     e( 44 - 45) =     -2.62406  eV     2   --> A              
     e( 44 - 45) =     -2.62406  eV     2   -->   ?
     e( 46 - 46) =     -2.62353  eV     1   -->   ?
     e( 47 - 48) =     -2.19651  eV     2   -->   ?
     e( 49 - 49) =     -2.19582  eV     1   -->   ?
     e( 50 - 50) =     -1.72625  eV     1   --> E*             
     e( 51 - 51) =     -1.61567  eV     1   --> E*             
     e( 52 - 52) =     -0.81093  eV     1   --> E              
     e( 53 - 53) =      1.87204  eV     1   --> E*             
     e( 54 - 55) =      3.69873  eV     2   -->   ?
     e( 56 - 56) =      3.69907  eV     1   -->   ?
     e( 57 - 57) =      3.75136  eV     1   --> A              
     e( 58 - 58) =      4.91637  eV     1   --> A              
     e( 59 - 59) =      5.09337  eV     1   --> E*             
     e( 60 - 60) =      5.28534  eV     1   --> E              
     e( 61 - 62) =      5.36256  eV     2   -->   ?
     e( 63 - 63) =      5.36290  eV     1   -->   ?
     e( 64 - 65) =      5.83168  eV     2   -->   ?
     e( 66 - 66) =      5.83184  eV     1   -->   ?
     e( 67 - 67) =      6.19535  eV     1   --> A              
     e( 68 - 69) =      6.24259  eV     2   -->   ?
     e( 70 - 70) =      6.24279  eV     1   -->   ?
     e( 71 - 71) =      6.47200  eV     1   --> E              
     e( 72 - 73) =      6.94447  eV     2   -->   ?
     e( 74 - 74) =      6.94468  eV     1   -->   ?
     e( 75 - 75) =      7.00276  eV     1   --> A              
     e( 76 - 76) =      7.06179  eV     1   --> E*             
     e( 77 - 79) =      7.21037  eV     3   --> A              
     e( 77 - 79) =      7.21037  eV     3   --> E              
     e( 77 - 79) =      7.21037  eV     3   --> E*             
     e( 80 - 80) =      7.51495  eV     1   -->   ?
     e( 81 - 81) =      7.51517  eV     1   -->   ?
     e( 82 - 82) =      7.51533  eV     1   -->   ?
     e( 83 - 85) =      7.54966  eV     3   --> A              
     e( 83 - 85) =      7.54966  eV     3   --> E              
     e( 83 - 85) =      7.54966  eV     3   --> E*             
     e( 86 - 86) =      7.67881  eV     1   --> E              
     e( 87 - 87) =      8.76183  eV     1   --> E*             
     e( 88 - 88) =      8.78865  eV     1   -->   ?
     e( 89 - 90) =      8.78891  eV     2   -->   ?
     e( 91 - 92) =      8.99377  eV     2   --> A              
     e( 91 - 92) =      8.99377  eV     2   -->   ?
     e( 93 - 93) =      8.99417  eV     1   -->   ?
     e( 94 - 94) =      9.96206  eV     1   -->   ?
     e( 95 - 96) =      9.96228  eV     2   -->   ?
     e( 97 - 97) =     10.09708  eV     1   -->   ?
     e( 98 - 99) =     10.09722  eV     2   -->   ?
     e(100 -102) =     10.26858  eV     3   --> A              
     e(100 -102) =     10.26858  eV     3   --> E              
     e(100 -102) =     10.26858  eV     3   --> E*             
     e(103 -103) =     10.49964  eV     1   --> E              
     e(104 -104) =     11.05816  eV     1   --> A              
     e(105 -105) =     12.62316  eV     1   --> A              
     e(106 -106) =     12.73574  eV     1   --> E*             
     e(107 -107) =     12.76407  eV     1   --> E              
     e(108 -110) =     13.24026  eV     3   --> A              
     e(108 -110) =     13.24026  eV     3   --> E              
     e(108 -110) =     13.24026  eV     3   --> E*             
     e(111 -113) =     14.06340  eV     3   --> A              
     e(111 -113) =     14.06340  eV     3   --> E              
     e(111 -113) =     14.06340  eV     3   --> E*             
     e(114 -114) =     14.08507  eV     1   -->   ?
     e(115 -116) =     14.08520  eV     2   -->   ?
     e(117 -119) =     14.27880  eV     3   --> A              
     e(117 -119) =     14.27880  eV     3   --> E              
     e(117 -119) =     14.27880  eV     3   --> E*             
     e(120 -120) =     14.46343  eV     1   --> A              
     e(121 -121) =     15.25244  eV     1   --> E*             
     e(122 -122) =     15.56747  eV     1   -->   ?
     e(123 -124) =     15.56762  eV     2   -->   ?
     e(125 -127) =     16.19834  eV     3   --> A              
     e(125 -127) =     16.19834  eV     3   --> E              
     e(125 -127) =     16.19834  eV     3   --> E*             
     e(128 -128) =     17.11002  eV     1   -->   ?
     e(129 -130) =     17.11015  eV     2   -->   ?
     e(131 -131) =     17.16475  eV     1   --> E*             
     e(132 -132) =     17.54420  eV     1   --> A              
     e(133 -133) =     17.73404  eV     1   --> E              
     e(134 -134) =     17.98161  eV     1   --> E*             
     e(135 -135) =     18.49259  eV     1   -->   ?
     e(136 -137) =     18.49276  eV     2   -->   ?
     e(138 -139) =     18.55982  eV     2   -->   ?
     e(140 -140) =     18.55999  eV     1   -->   ?
     e(141 -141) =     18.58281  eV     1   --> E              
     e(142 -144) =     19.11023  eV     3   --> A              
     e(142 -144) =     19.11023  eV     3   --> E              
     e(142 -144) =     19.11023  eV     3   --> E*             
     e(145 -146) =     19.31937  eV     2   -->   ?
     e(147 -147) =     19.31959  eV     1   -->   ?
     e(148 -150) =     19.78090  eV     3   --> A              
     e(148 -150) =     19.78090  eV     3   --> E              
     e(148 -150) =     19.78090  eV     3   --> E*             
     e(151 -151) =     20.10976  eV     1   --> A              
     e(152 -152) =     20.64966  eV     1   -->   ?

 **************************************************************************

     BANDS        :      1h48m CPU  53m30.12s WALL


   This run was terminated on:  10:54:10  14May2021            

=------------------------------------------------------------------------------=
   JOB DONE.
=------------------------------------------------------------------------------=
