
     Program PWSCF v.6.4.1 starts on 16May2021 at 18:59:20 

     This program is part of the open-source Quantum ESPRESSO suite
     for quantum simulation of materials; please cite
         "P. Giannozzi et al., J. Phys.:Condens. Matter 21 395502 (2009);
         "P. Giannozzi et al., J. Phys.:Condens. Matter 29 465901 (2017);
          URL http://www.quantum-espresso.org", 
     in publications or presentations arising from this work. More details at
     http://www.quantum-espresso.org/quote

     Parallel version (MPI & OpenMP), running on      12 processor cores
     Number of MPI processes:                 1
     Threads/MPI process:                    12

     MPI processes distributed on     1 nodes
     Waiting for input...
     Reading input from standard input

     Current dimensions of program PWSCF are:
     Max number of different atomic species (ntypx) = 10
     Max number of k-points (npk) =  40000
     Max angular momentum in pseudopotentials (lmaxx) =  3
     Message from routine iosys:
     wrong startingpot: use default (2)

     Atomic positions and unit cell read from directory:
     ./out/\Si_exc1.save\

     Message from routine read_upf::
     Pseudo file Sn.pbe-dn-rrkjus_psl.1.0.0.UPF has been fixed on the fly.
To avoid this message in the future, permanently fix 
 your pseudo files following these instructions: 
https://gitlab.com/QEF/q-e/blob/master/upftools/how_to_fix_upf.md
     Message from routine read_upf::
     Pseudo file Se.pbe-n-rrkjus_psl.1.0.0.UPF has been fixed on the fly.
To avoid this message in the future, permanently fix 
 your pseudo files following these instructions: 
https://gitlab.com/QEF/q-e/blob/master/upftools/how_to_fix_upf.md
               file Sn.pbe-dn-rrkjus_psl.1.0.0.UPF: wavefunction(s)  5S 4D renormalized

     Subspace diagonalization in iterative solution of the eigenvalue problem:
     a serial algorithm will be used

     Found symmetry operation: I + ( -0.0000  0.5000  0.0000)
     This is a supercell, fractional translations are disabled

     G-vector sticks info
     --------------------
     sticks:   dense  smooth     PW     G-vecs:    dense   smooth      PW
     Sum        4267    1891    511               469503   139185   19839



     bravais-lattice index     =            4
     lattice parameter (alat)  =      12.0649  a.u.
     unit-cell volume          =    3186.9792 (a.u.)^3
     number of atoms/cell      =           24
     number of atomic types    =            3
     number of electrons       =       208.00
     number of Kohn-Sham states=          125
     kinetic-energy cutoff     =      47.0743  Ry
     charge density cutoff     =     423.6680  Ry
     Exchange-correlation      =  SLA  PW   PBE  PBE ( 1  4  3  4 0 0)

     celldm(1)=  12.064919  celldm(2)=   0.000000  celldm(3)=   2.095441
     celldm(4)=   0.000000  celldm(5)=   0.000000  celldm(6)=   0.000000

     crystal axes: (cart. coord. in units of alat)
               a(1) = (   1.000000   0.000000   0.000000 )  
               a(2) = (  -0.500000   0.866025   0.000000 )  
               a(3) = (   0.000000   0.000000   2.095441 )  

     reciprocal axes: (cart. coord. in units 2 pi/alat)
               b(1) = (  1.000000  0.577350 -0.000000 )  
               b(2) = (  0.000000  1.154701  0.000000 )  
               b(3) = (  0.000000 -0.000000  0.477227 )  


     PseudoPot. # 1 for Sn read from file:
     ./pseudo\Sn.pbe-dn-rrkjus_psl.1.0.0.UPF
     MD5 check sum: 6923576d35b7bb477f9d834f190d2db6
     Pseudo is Ultrasoft + core correction, Zval = 14.0
     Generated using "atomic" code by A. Dal Corso v.5.1.2
     Using radial grid of 1243 points,  6 beta functions with: 
                l(1) =   0
                l(2) =   0
                l(3) =   1
                l(4) =   1
                l(5) =   2
                l(6) =   2
     Q(r) pseudized with 0 coefficients 


     PseudoPot. # 2 for Se read from file:
     ./pseudo\Se.pbe-n-rrkjus_psl.1.0.0.UPF
     MD5 check sum: b4fde84b927950421ac83de11f467c93
     Pseudo is Ultrasoft + core correction, Zval =  6.0
     Generated using "atomic" code by A. Dal Corso v.5.1.2
     Using radial grid of 1211 points,  4 beta functions with: 
                l(1) =   0
                l(2) =   0
                l(3) =   1
                l(4) =   1
     Q(r) pseudized with 0 coefficients 


     PseudoPot. # 3 for W  read from file:
     ./pseudo\W.pbe-nsp-van.UPF
     MD5 check sum: d6466f82beb0ca8b88800d998c44bca0
     Pseudo is Ultrasoft + core correction, Zval = 14.0
     Generated by new atomic code, or converted to UPF format
     Using radial grid of  923 points,  6 beta functions with: 
                l(1) =   0
                l(2) =   0
                l(3) =   1
                l(4) =   1
                l(5) =   2
                l(6) =   2
     Q(r) pseudized with  6 coefficients,  rinner =    1.000   1.000   1.000
                                                       1.000   1.000

     atomic species   valence    mass     pseudopotential
        Sn            14.00   118.71000     Sn( 1.00)
        Se             6.00    78.96000     Se( 1.00)
        W             14.00   183.84000     W ( 1.00)

     Starting magnetic structure 
     atomic species   magnetization
        Sn           0.000
        Se           0.000
        W            0.200

      6 Sym. Ops. (no inversion) found


                                    s                        frac. trans.

      isym =  1     identity                                     

 cryst.   s( 1) = (     1          0          0      )
                  (     0          1          0      )
                  (     0          0          1      )

 cart.    s( 1) = (  1.0000000 -0.0000000  0.0000000 )
                  (  0.0000000  1.0000000  0.0000000 )
                  (  0.0000000  0.0000000  1.0000000 )


      isym =  2     120 deg rotation - cryst. axis [0,0,1]       

 cryst.   s( 2) = (     0          1          0      )
                  (    -1         -1          0      )
                  (     0          0          1      )

 cart.    s( 2) = ( -0.5000000 -0.8660254  0.0000000 )
                  (  0.8660254 -0.5000000  0.0000000 )
                  (  0.0000000  0.0000000  1.0000000 )


      isym =  3     120 deg rotation - cryst. axis [0,0,-1]      

 cryst.   s( 3) = (    -1         -1          0      )
                  (     1          0          0      )
                  (     0          0          1      )

 cart.    s( 3) = ( -0.5000000  0.8660254  0.0000000 )
                  ( -0.8660254 -0.5000000  0.0000000 )
                  (  0.0000000  0.0000000  1.0000000 )


      isym =  4     inv. 180 deg rotation - cart. axis [1,0,0]   

 cryst.   s( 4) = (    -1          0          0      )
                  (     1          1          0      )
                  (     0          0          1      )

 cart.    s( 4) = ( -1.0000000 -0.0000000  0.0000000 )
                  (  0.0000000  1.0000000  0.0000000 )
                  (  0.0000000  0.0000000  1.0000000 )


      isym =  5     inv. 180 deg rotation - cryst. axis [0,1,0]  

 cryst.   s( 5) = (     1          1          0      )
                  (     0         -1          0      )
                  (     0          0          1      )

 cart.    s( 5) = (  0.5000000  0.8660254  0.0000000 )
                  (  0.8660254 -0.5000000  0.0000000 )
                  (  0.0000000  0.0000000  1.0000000 )


      isym =  6     inv. 180 deg rotation - cryst. axis [1,1,0]  

 cryst.   s( 6) = (     0         -1          0      )
                  (    -1          0          0      )
                  (     0          0          1      )

 cart.    s( 6) = (  0.5000000 -0.8660254  0.0000000 )
                  ( -0.8660254 -0.5000000  0.0000000 )
                  (  0.0000000  0.0000000  1.0000000 )


     point group C_3v (3m)  
     there are  3 classes
     the character table:

       E     2C3   3s_v 
A_1    1.00  1.00  1.00
A_2    1.00  1.00 -1.00
E      2.00 -1.00  0.00

     the symmetry operations in each class and the name of the first element:

     E        1
          identity                                               
     2C3      2    3
          120 deg rotation - cryst. axis [0,0,1]                 
     3s_v     4    5    6
          inv. 180 deg rotation - cart. axis [1,0,0]             

   Cartesian axes

     site n.     atom                  positions (alat units)
         1           Sn  tau(   1) = (  -0.0000005   0.2886747   1.5715800  )
         2           Sn  tau(   2) = (  -0.2500003   0.7216871   1.5715800  )
         3           Sn  tau(   3) = (   0.4999992   0.2886747   1.5715800  )
         4           Sn  tau(   4) = (   0.2499994   0.7216871   1.5715800  )
         5           Se  tau(   5) = (   0.2499998   0.1443369   1.3265853  )
         6           Se  tau(   6) = (   0.0000000   0.5773493   1.3265853  )
         7           Se  tau(   7) = (   0.7499995   0.1443369   1.3265853  )
         8           Se  tau(   8) = (   0.4999997   0.5773493   1.3265853  )
         9           Se  tau(   9) = (  -0.0000005   0.2886747   0.7688546  )
        10           Se  tau(  10) = (  -0.2500003   0.7216871   0.7688546  )
        11           Se  tau(  11) = (   0.4999992   0.2886747   0.7688546  )
        12           Se  tau(  12) = (   0.2499994   0.7216871   0.7688546  )
        13           Se  tau(  13) = (   0.2499998   0.1443369   1.8165746  )
        14           Se  tau(  14) = (   0.0000000   0.5773493   1.8165746  )
        15           Se  tau(  15) = (   0.7499995   0.1443369   1.8165746  )
        16           Se  tau(  16) = (   0.4999997   0.5773493   1.8165746  )
        17           Se  tau(  17) = (  -0.0000005   0.2886747   0.2788653  )
        18           Se  tau(  18) = (  -0.2500003   0.7216871   0.2788653  )
        19           Se  tau(  19) = (   0.4999992   0.2886747   0.2788653  )
        20           Se  tau(  20) = (   0.2499994   0.7216871   0.2788653  )
        21           W   tau(  21) = (   0.2499998   0.1443369   0.5238600  )
        22           W   tau(  22) = (   0.0000000   0.5773493   0.5238600  )
        23           W   tau(  23) = (   0.7499995   0.1443369   0.5238600  )
        24           W   tau(  24) = (   0.4999997   0.5773493   0.5238600  )

   Crystallographic axes

     site n.     atom                  positions (cryst. coord.)
         1           Sn  tau(   1) = (  0.1666660  0.3333329  0.7499997  )
         2           Sn  tau(   2) = (  0.1666659  0.8333325  0.7499997  )
         3           Sn  tau(   3) = (  0.6666656  0.3333329  0.7499997  )
         4           Sn  tau(   4) = (  0.6666656  0.8333325  0.7499997  )
         5           Se  tau(   5) = (  0.3333328  0.1666659  0.6330817  )
         6           Se  tau(   6) = (  0.3333328  0.6666655  0.6330817  )
         7           Se  tau(   7) = (  0.8333325  0.1666659  0.6330817  )
         8           Se  tau(   8) = (  0.8333325  0.6666655  0.6330817  )
         9           Se  tau(   9) = (  0.1666660  0.3333329  0.3669178  )
        10           Se  tau(  10) = (  0.1666659  0.8333325  0.3669178  )
        11           Se  tau(  11) = (  0.6666656  0.3333329  0.3669178  )
        12           Se  tau(  12) = (  0.6666656  0.8333325  0.3669178  )
        13           Se  tau(  13) = (  0.3333328  0.1666659  0.8669176  )
        14           Se  tau(  14) = (  0.3333328  0.6666655  0.8669176  )
        15           Se  tau(  15) = (  0.8333325  0.1666659  0.8669176  )
        16           Se  tau(  16) = (  0.8333325  0.6666655  0.8669176  )
        17           Se  tau(  17) = (  0.1666660  0.3333329  0.1330819  )
        18           Se  tau(  18) = (  0.1666659  0.8333325  0.1330819  )
        19           Se  tau(  19) = (  0.6666656  0.3333329  0.1330819  )
        20           Se  tau(  20) = (  0.6666656  0.8333325  0.1330819  )
        21           W   tau(  21) = (  0.3333328  0.1666659  0.2499999  )
        22           W   tau(  22) = (  0.3333328  0.6666655  0.2499999  )
        23           W   tau(  23) = (  0.8333325  0.1666659  0.2499999  )
        24           W   tau(  24) = (  0.8333325  0.6666655  0.2499999  )

     number of k points=     2  gaussian smearing, width (Ry)=  0.0100
                       cart. coord. in units 2pi/alat
        k(    1) = (   0.0000000   0.0000000   0.0000000), wk =   0.2500000
        k(    2) = (   0.0000000  -0.5773503   0.0000000), wk =   0.7500000

                       cryst. coord.
        k(    1) = (   0.0000000   0.0000000   0.0000000), wk =   0.2500000
        k(    2) = (   0.0000000  -0.5000000   0.0000000), wk =   0.7500000

     Dense  grid:   469503 G-vectors     FFT dimensions: (  80,  80, 180)

     Smooth grid:   139185 G-vectors     FFT dimensions: (  54,  54, 120)

     Dynamical RAM for                 wfc:      33.15 MB

     Dynamical RAM for     wfc (w. buffer):      33.15 MB

     Dynamical RAM for           str. fact:      21.49 MB

     Dynamical RAM for           local pot:       0.00 MB

     Dynamical RAM for          nlocal pot:      72.14 MB

     Dynamical RAM for                qrad:       9.51 MB

     Dynamical RAM for          rho,v,vnew:      95.72 MB

     Dynamical RAM for           G-vectors:      27.93 MB

     Dynamical RAM for          h,s,v(r/c):      11.44 MB

     Dynamical RAM for          <psi|beta>:       0.52 MB

     Dynamical RAM for                 psi:     132.61 MB

     Dynamical RAM for                hpsi:     132.61 MB

     Dynamical RAM for                spsi:     132.61 MB

     Dynamical RAM for      wfcinit/wfcrot:      81.16 MB

     Dynamical RAM for           addusdens:    1454.30 MB

     Estimated static dynamical RAM per process >     341.33 MB

     Estimated max dynamical RAM per process >       1.75 GB
     Generating pointlists ...
     new r_m :   0.1562 (alat units)  1.8843 (a.u.) for type    1
     new r_m :   0.1562 (alat units)  1.8843 (a.u.) for type    2
     new r_m :   0.1562 (alat units)  1.8843 (a.u.) for type    3

     The potential is recalculated from file :
     ./out/\Si_exc1.save\charge-density

     Starting wfcs are  152 randomized atomic wfcs

     Band Structure Calculation
     Davidson diagonalization with overlap

     Computing kpt #:     1
     total cpu time spent up to now is       29.5 secs

     Computing kpt #:     2
     total cpu time spent up to now is       40.9 secs

     Computing kpt #:     3
     total cpu time spent up to now is       50.9 secs

     Computing kpt #:     4
     total cpu time spent up to now is       62.1 secs

     ethr =  4.81E-10,  avg # of iterations = 21.5

     total cpu time spent up to now is       62.1 secs

     End of band structure calculation

 ------ SPIN UP ------------


          k = 0.0000 0.0000 0.0000 ( 17401 PWs)   bands (ev):

   -62.5981 -62.5809 -62.5808 -62.5808 -27.1647 -27.1647 -27.1646 -27.0023
   -26.9286 -26.9285 -26.9285 -26.8942 -26.8942 -26.8942 -26.8125 -26.8125
   -11.4910 -11.4910 -11.4908 -11.4540 -11.4540 -11.4538 -11.3267 -11.3267
   -11.2457 -11.1909 -11.1908 -11.1907 -11.1359 -11.1359 -11.0487 -11.0484
   -11.0483 -11.0390 -11.0390 -11.0388  -6.5427  -4.5187  -4.0718  -3.3062
    -3.3061  -3.3056  -2.7073  -2.1003  -2.1003  -2.0996  -1.8151  -1.8151
    -1.8145  -1.2765  -1.2764  -1.2759   1.1169   1.1173   1.1173   3.0645
     4.0674   4.0678   4.0678   4.3637   4.3640   4.3640   4.3720   5.5200
     5.5203   5.5203   5.7570   5.7570   5.7575   6.4510   6.4511   6.4515
     7.2862   7.6109   7.6111   7.6111   8.0266   8.0267   8.0267   8.1891
     8.1891   8.9855   8.9855   8.9859   9.4465   9.6152   9.6153   9.9754
     9.9755   9.9756  10.1231  10.1233  10.1233  10.1601  10.1602  10.1606
    10.5611  10.5612  10.5613  10.8568  10.9629  10.9629  11.2656  11.2659
    11.2659  12.0126  12.0127  13.3544  13.3544  13.3545  13.8607  13.8607
    13.8607  13.8954  14.3318  14.3319  14.3319  14.5096  14.5097  14.9633
    14.9634  15.3601  15.3601  15.3602  15.3964

     occupation numbers 
     1.0000   1.0000   1.0000   1.0000   1.0000   1.0000   1.0000   1.0000
     1.0000   1.0000   1.0000   1.0000   1.0000   1.0000   1.0000   1.0000
     1.0000   1.0000   1.0000   1.0000   1.0000   1.0000   1.0000   1.0000
     1.0000   1.0000   1.0000   1.0000   1.0000   1.0000   1.0000   1.0000
     1.0000   1.0000   1.0000   1.0000   1.0000   1.0000   1.0000   1.0000
     1.0000   1.0000   1.0000   1.0000   1.0000   1.0000   1.0000   1.0000
     1.0000   1.0000   1.0000   1.0000   1.0000   1.0000   1.0000   1.0000
     1.0000   1.0000   1.0000   1.0000   1.0000   1.0000   1.0000   1.0000
     1.0000   1.0000   1.0000   1.0000   1.0000   1.0000   1.0000   1.0000
     1.0000   1.0000   1.0000   1.0000   1.0000   1.0000   1.0000   1.0000
     1.0000   1.0000   1.0000   1.0000   1.0000   1.0000   1.0000   1.0000
     1.0000   1.0000   1.0000   1.0000   1.0000   1.0000   1.0000   1.0000
     1.0000   1.0000   1.0000   1.0000   1.0000   1.0000   0.7838   0.7830
     0.7829   0.0000   0.0000   0.0000   0.0000   0.0000   0.0000   0.0000
     0.0000   0.0000   0.0000   0.0000   0.0000   0.0000   0.0000   0.0000
     0.0000   0.0000   0.0000   0.0000   0.0000

          k = 0.0000-0.5774 0.0000 ( 17400 PWs)   bands (ev):

   -62.5895 -62.5895 -62.5809 -62.5808 -27.1008 -27.1007 -26.9915 -26.9915
   -26.9656 -26.9655 -26.9607 -26.9607 -26.9286 -26.9286 -26.8536 -26.8535
   -11.4078 -11.4077 -11.4075 -11.4074 -11.3746 -11.3744 -11.3046 -11.3043
   -11.2388 -11.2386 -11.1853 -11.1850 -11.1672 -11.1670 -11.1635 -11.1633
   -11.1452 -11.1450 -11.0457 -11.0454  -5.4022  -5.4019  -3.4883  -3.4879
    -3.4782  -3.4779  -2.9649  -2.9646  -2.3057  -2.3052  -2.1422  -2.1418
    -1.7915  -1.7911  -1.3666  -1.3663   2.3821   2.3823   3.6538   3.6540
     4.9260   4.9263   5.0693   5.0694   5.2086   5.2089   5.4223   5.4226
     5.4752   5.4754   6.0211   6.0212   6.0344   6.0344   6.4119   6.4121
     6.7902   6.7905   6.9335   6.9335   7.3319   7.3320   7.5385   7.5386
     7.5968   7.5970   8.1249   8.1250   8.4194   8.4197   8.6508   8.6509
     9.1500   9.1503   9.1987   9.1989   9.2702   9.2704   9.8944   9.8945
    10.1064  10.1064  10.1671  10.1674  10.4567  10.4568  11.1898  11.1902
    12.5501  12.5504  13.3200  13.3200  13.5685  13.5685  13.9798  13.9800
    13.9932  13.9934  14.2371  14.2372  14.3151  14.3152  14.5070  14.5071
    14.5108  14.5109  14.7724  14.7725  15.8311

     occupation numbers 
     1.0000   1.0000   1.0000   1.0000   1.0000   1.0000   1.0000   1.0000
     1.0000   1.0000   1.0000   1.0000   1.0000   1.0000   1.0000   1.0000
     1.0000   1.0000   1.0000   1.0000   1.0000   1.0000   1.0000   1.0000
     1.0000   1.0000   1.0000   1.0000   1.0000   1.0000   1.0000   1.0000
     1.0000   1.0000   1.0000   1.0000   1.0000   1.0000   1.0000   1.0000
     1.0000   1.0000   1.0000   1.0000   1.0000   1.0000   1.0000   1.0000
     1.0000   1.0000   1.0000   1.0000   1.0000   1.0000   1.0000   1.0000
     1.0000   1.0000   1.0000   1.0000   1.0000   1.0000   1.0000   1.0000
     1.0000   1.0000   1.0000   1.0000   1.0000   1.0000   1.0000   1.0000
     1.0000   1.0000   1.0000   1.0000   1.0000   1.0000   1.0000   1.0000
     1.0000   1.0000   1.0000   1.0000   1.0000   1.0000   1.0000   1.0000
     1.0000   1.0000   1.0000   1.0000   1.0000   1.0000   1.0000   1.0000
     1.0000   1.0000   1.0000   1.0000   1.0000   1.0000   0.9421   0.9417
     0.0000   0.0000   0.0000   0.0000   0.0000   0.0000   0.0000   0.0000
     0.0000   0.0000   0.0000   0.0000   0.0000   0.0000   0.0000   0.0000
     0.0000   0.0000   0.0000   0.0000   0.0000

 ------ SPIN DOWN ----------


          k = 0.0000 0.0000 0.0000 ( 17401 PWs)   bands (ev):

   -62.5978 -62.5806 -62.5805 -62.5804 -27.1642 -27.1642 -27.1642 -27.0017
   -26.9280 -26.9279 -26.9278 -26.8938 -26.8937 -26.8937 -26.8120 -26.8120
   -11.4910 -11.4910 -11.4908 -11.4540 -11.4540 -11.4538 -11.3266 -11.3266
   -11.2457 -11.1908 -11.1908 -11.1907 -11.1359 -11.1359 -11.0487 -11.0483
   -11.0483 -11.0390 -11.0390 -11.0388  -6.5426  -4.5190  -4.0718  -3.3061
    -3.3061  -3.3056  -2.7077  -2.1007  -2.1006  -2.0999  -1.8155  -1.8155
    -1.8149  -1.2764  -1.2764  -1.2759   1.1170   1.1173   1.1174   3.0646
     4.0673   4.0676   4.0677   4.3638   4.3641   4.3641   4.3719   5.5198
     5.5200   5.5201   5.7570   5.7571   5.7575   6.4511   6.4512   6.4516
     7.2862   7.6111   7.6112   7.6113   8.0267   8.0268   8.0268   8.1893
     8.1893   8.9854   8.9854   8.9858   9.4463   9.6156   9.6156   9.9756
     9.9756   9.9757  10.1227  10.1229  10.1229  10.1601  10.1602  10.1606
    10.5612  10.5613  10.5613  10.8573  10.9629  10.9630  11.2658  11.2660
    11.2661  12.0127  12.0127  13.3544  13.3544  13.3545  13.8612  13.8612
    13.8613  13.8955  14.3322  14.3323  14.3323  14.5095  14.5096  14.9631
    14.9631  15.3601  15.3602  15.3602  15.3965

     occupation numbers 
     1.0000   1.0000   1.0000   1.0000   1.0000   1.0000   1.0000   1.0000
     1.0000   1.0000   1.0000   1.0000   1.0000   1.0000   1.0000   1.0000
     1.0000   1.0000   1.0000   1.0000   1.0000   1.0000   1.0000   1.0000
     1.0000   1.0000   1.0000   1.0000   1.0000   1.0000   1.0000   1.0000
     1.0000   1.0000   1.0000   1.0000   1.0000   1.0000   1.0000   1.0000
     1.0000   1.0000   1.0000   1.0000   1.0000   1.0000   1.0000   1.0000
     1.0000   1.0000   1.0000   1.0000   1.0000   1.0000   1.0000   1.0000
     1.0000   1.0000   1.0000   1.0000   1.0000   1.0000   1.0000   1.0000
     1.0000   1.0000   1.0000   1.0000   1.0000   1.0000   1.0000   1.0000
     1.0000   1.0000   1.0000   1.0000   1.0000   1.0000   1.0000   1.0000
     1.0000   1.0000   1.0000   1.0000   1.0000   1.0000   1.0000   1.0000
     1.0000   1.0000   1.0000   1.0000   1.0000   1.0000   1.0000   1.0000
     1.0000   1.0000   1.0000   1.0000   1.0000   1.0000   0.7834   0.7826
     0.7825   0.0000   0.0000   0.0000   0.0000   0.0000   0.0000   0.0000
     0.0000   0.0000   0.0000   0.0000   0.0000   0.0000   0.0000   0.0000
     0.0000   0.0000   0.0000   0.0000   0.0000

          k = 0.0000-0.5774 0.0000 ( 17400 PWs)   bands (ev):

   -62.5892 -62.5891 -62.5805 -62.5805 -27.1003 -27.1002 -26.9911 -26.9910
   -26.9650 -26.9649 -26.9602 -26.9602 -26.9280 -26.9279 -26.8531 -26.8530
   -11.4078 -11.4076 -11.4075 -11.4074 -11.3746 -11.3744 -11.3045 -11.3043
   -11.2388 -11.2386 -11.1853 -11.1850 -11.1672 -11.1670 -11.1635 -11.1632
   -11.1452 -11.1450 -11.0456 -11.0454  -5.4022  -5.4019  -3.4886  -3.4882
    -3.4782  -3.4779  -2.9649  -2.9646  -2.3061  -2.3057  -2.1426  -2.1422
    -1.7919  -1.7915  -1.3666  -1.3663   2.3821   2.3823   3.6539   3.6541
     4.9260   4.9262   5.0693   5.0695   5.2086   5.2089   5.4223   5.4226
     5.4751   5.4753   6.0211   6.0213   6.0344   6.0345   6.4118   6.4120
     6.7902   6.7905   6.9334   6.9335   7.3318   7.3319   7.5384   7.5385
     7.5969   7.5970   8.1250   8.1251   8.4196   8.4199   8.6508   8.6509
     9.1501   9.1503   9.1987   9.1990   9.2701   9.2703   9.8942   9.8944
    10.1068  10.1068  10.1671  10.1674  10.4569  10.4569  11.1899  11.1903
    12.5503  12.5505  13.3201  13.3201  13.5689  13.5689  13.9799  13.9801
    13.9933  13.9934  14.2372  14.2373  14.3156  14.3156  14.5073  14.5074
    14.5110  14.5110  14.7725  14.7726  15.8311

     occupation numbers 
     1.0000   1.0000   1.0000   1.0000   1.0000   1.0000   1.0000   1.0000
     1.0000   1.0000   1.0000   1.0000   1.0000   1.0000   1.0000   1.0000
     1.0000   1.0000   1.0000   1.0000   1.0000   1.0000   1.0000   1.0000
     1.0000   1.0000   1.0000   1.0000   1.0000   1.0000   1.0000   1.0000
     1.0000   1.0000   1.0000   1.0000   1.0000   1.0000   1.0000   1.0000
     1.0000   1.0000   1.0000   1.0000   1.0000   1.0000   1.0000   1.0000
     1.0000   1.0000   1.0000   1.0000   1.0000   1.0000   1.0000   1.0000
     1.0000   1.0000   1.0000   1.0000   1.0000   1.0000   1.0000   1.0000
     1.0000   1.0000   1.0000   1.0000   1.0000   1.0000   1.0000   1.0000
     1.0000   1.0000   1.0000   1.0000   1.0000   1.0000   1.0000   1.0000
     1.0000   1.0000   1.0000   1.0000   1.0000   1.0000   1.0000   1.0000
     1.0000   1.0000   1.0000   1.0000   1.0000   1.0000   1.0000   1.0000
     1.0000   1.0000   1.0000   1.0000   1.0000   1.0000   0.9420   0.9416
     0.0000   0.0000   0.0000   0.0000   0.0000   0.0000   0.0000   0.0000
     0.0000   0.0000   0.0000   0.0000   0.0000   0.0000   0.0000   0.0000
     0.0000   0.0000   0.0000   0.0000   0.0000

     the Fermi energy is    11.3412 ev

     Writing output data file Si_exc1.save\

     init_run     :     31.45s CPU     10.71s WALL (       1 calls)
     electrons    :    264.56s CPU     43.93s WALL (       1 calls)

     Called by init_run:
     wfcinit      :      0.00s CPU      0.00s WALL (       1 calls)
     wfcinit:atom :      0.42s CPU      0.09s WALL (       4 calls)
     wfcinit:wfcr :     17.03s CPU      2.93s WALL (       4 calls)
     potinit      :      6.58s CPU      0.82s WALL (       1 calls)
     hinit0       :      9.30s CPU      6.70s WALL (       1 calls)

     Called by electrons:
     c_bands      :    264.56s CPU     43.93s WALL (       1 calls)
     v_of_rho     :      5.92s CPU      0.70s WALL (       1 calls)
     v_h          :      0.08s CPU      0.02s WALL (       1 calls)
     v_xc         :      5.84s CPU      0.68s WALL (       1 calls)
     newd         :     15.05s CPU      2.65s WALL (       1 calls)

     Called by c_bands:
     init_us_2    :      0.59s CPU      0.05s WALL (       4 calls)
     cegterg      :    239.80s CPU     39.46s WALL (       7 calls)

     Called by sum_band:

     Called by *egterg:
     h_psi        :    142.23s CPU     23.25s WALL (      97 calls)
     s_psi        :     14.14s CPU      2.43s WALL (      97 calls)
     g_psi        :      1.55s CPU      0.18s WALL (      86 calls)
     cdiaghg      :     18.98s CPU      3.26s WALL (      90 calls)
     cegterg:over :     26.84s CPU      4.82s WALL (      86 calls)
     cegterg:upda :     25.83s CPU      4.29s WALL (      86 calls)
     cegterg:last :     16.36s CPU      2.62s WALL (      15 calls)

     Called by h_psi:
     h_psi:pot    :    139.03s CPU     22.89s WALL (      97 calls)
     h_psi:calbec :     10.83s CPU      2.25s WALL (      97 calls)
     vloc_psi     :    113.23s CPU     18.25s WALL (      97 calls)
     add_vuspsi   :     14.97s CPU      2.38s WALL (      97 calls)

     General routines
     calbec       :     10.83s CPU      2.25s WALL (      97 calls)
     fft          :      0.55s CPU      0.15s WALL (      23 calls)
     ffts         :      0.00s CPU      0.01s WALL (       2 calls)
     fftw         :     80.67s CPU     13.69s WALL (   12676 calls)
     interpolate  :      0.25s CPU      0.05s WALL (       2 calls)
     davcio       :      0.81s CPU      0.18s WALL (       8 calls)

     Parallel routines

     PWSCF        :   5m 4.34s CPU   1m 2.35s WALL


   This run was terminated on:  19: 0:23  16May2021            

=------------------------------------------------------------------------------=
   JOB DONE.
=------------------------------------------------------------------------------=
