
     Program PWSCF v.6.4.1 starts on 14May2021 at  8:40:56 

     This program is part of the open-source Quantum ESPRESSO suite
     for quantum simulation of materials; please cite
         "P. Giannozzi et al., J. Phys.:Condens. Matter 21 395502 (2009);
         "P. Giannozzi et al., J. Phys.:Condens. Matter 29 465901 (2017);
          URL http://www.quantum-espresso.org", 
     in publications or presentations arising from this work. More details at
     http://www.quantum-espresso.org/quote

     Parallel version (MPI & OpenMP), running on      12 processor cores
     Number of MPI processes:                 1
     Threads/MPI process:                    12

     MPI processes distributed on     1 nodes
     Waiting for input...
     Reading input from standard input

     Current dimensions of program PWSCF are:
     Max number of different atomic species (ntypx) = 10
     Max number of k-points (npk) =  40000
     Max angular momentum in pseudopotentials (lmaxx) =  3
     Message from routine read_upf::
     Pseudo file Sn.pbe-dn-rrkjus_psl.1.0.0.UPF has been fixed on the fly.
To avoid this message in the future, permanently fix 
 your pseudo files following these instructions: 
https://gitlab.com/QEF/q-e/blob/master/upftools/how_to_fix_upf.md
     Message from routine read_upf::
     Pseudo file Se.pbe-n-rrkjus_psl.1.0.0.UPF has been fixed on the fly.
To avoid this message in the future, permanently fix 
 your pseudo files following these instructions: 
https://gitlab.com/QEF/q-e/blob/master/upftools/how_to_fix_upf.md
               file Sn.pbe-dn-rrkjus_psl.1.0.0.UPF: wavefunction(s)  5S 4D renormalized

     Subspace diagonalization in iterative solution of the eigenvalue problem:
     a serial algorithm will be used

     Found symmetry operation: I + ( -0.0000  0.5000  0.0000)
     This is a supercell, fractional translations are disabled

     G-vector sticks info
     --------------------
     sticks:   dense  smooth     PW     G-vecs:    dense   smooth      PW
     Sum        4267    1891    511               469503   139185   19839



     bravais-lattice index     =            4
     lattice parameter (alat)  =      12.0649  a.u.
     unit-cell volume          =    3186.9792 (a.u.)^3
     number of atoms/cell      =           24
     number of atomic types    =            3
     number of electrons       =       208.00
     number of Kohn-Sham states=          125
     kinetic-energy cutoff     =      47.0743  Ry
     charge density cutoff     =     423.6680  Ry
     convergence threshold     =      1.0E-06
     mixing beta               =       0.4000
     number of iterations used =            8  plain     mixing
     Exchange-correlation      =  SLA  PW   PBE  PBE ( 1  4  3  4 0 0)

     celldm(1)=  12.064919  celldm(2)=   0.000000  celldm(3)=   2.095441
     celldm(4)=   0.000000  celldm(5)=   0.000000  celldm(6)=   0.000000

     crystal axes: (cart. coord. in units of alat)
               a(1) = (   1.000000   0.000000   0.000000 )  
               a(2) = (  -0.500000   0.866025   0.000000 )  
               a(3) = (   0.000000   0.000000   2.095441 )  

     reciprocal axes: (cart. coord. in units 2 pi/alat)
               b(1) = (  1.000000  0.577350 -0.000000 )  
               b(2) = (  0.000000  1.154701  0.000000 )  
               b(3) = (  0.000000 -0.000000  0.477227 )  


     PseudoPot. # 1 for Sn read from file:
     ./pseudo\Sn.pbe-dn-rrkjus_psl.1.0.0.UPF
     MD5 check sum: 6923576d35b7bb477f9d834f190d2db6
     Pseudo is Ultrasoft + core correction, Zval = 14.0
     Generated using "atomic" code by A. Dal Corso v.5.1.2
     Using radial grid of 1243 points,  6 beta functions with: 
                l(1) =   0
                l(2) =   0
                l(3) =   1
                l(4) =   1
                l(5) =   2
                l(6) =   2
     Q(r) pseudized with 0 coefficients 


     PseudoPot. # 2 for Se read from file:
     ./pseudo\Se.pbe-n-rrkjus_psl.1.0.0.UPF
     MD5 check sum: b4fde84b927950421ac83de11f467c93
     Pseudo is Ultrasoft + core correction, Zval =  6.0
     Generated using "atomic" code by A. Dal Corso v.5.1.2
     Using radial grid of 1211 points,  4 beta functions with: 
                l(1) =   0
                l(2) =   0
                l(3) =   1
                l(4) =   1
     Q(r) pseudized with 0 coefficients 


     PseudoPot. # 3 for W  read from file:
     ./pseudo\W.pbe-nsp-van.UPF
     MD5 check sum: d6466f82beb0ca8b88800d998c44bca0
     Pseudo is Ultrasoft + core correction, Zval = 14.0
     Generated by new atomic code, or converted to UPF format
     Using radial grid of  923 points,  6 beta functions with: 
                l(1) =   0
                l(2) =   0
                l(3) =   1
                l(4) =   1
                l(5) =   2
                l(6) =   2
     Q(r) pseudized with  6 coefficients,  rinner =    1.000   1.000   1.000
                                                       1.000   1.000

     atomic species   valence    mass     pseudopotential
        Sn            14.00   118.71000     Sn( 1.00)
        Se             6.00    78.96000     Se( 1.00)
        W             14.00   183.84000     W ( 1.00)

     Starting magnetic structure 
     atomic species   magnetization
        Sn           0.000
        Se           0.000
        W            0.200

      6 Sym. Ops. (no inversion) found



   Cartesian axes

     site n.     atom                  positions (alat units)
         1           Sn  tau(   1) = (  -0.0000005   0.2886747   1.5715800  )
         2           Sn  tau(   2) = (  -0.2500003   0.7216871   1.5715800  )
         3           Sn  tau(   3) = (   0.4999992   0.2886747   1.5715800  )
         4           Sn  tau(   4) = (   0.2499994   0.7216871   1.5715800  )
         5           Se  tau(   5) = (   0.2499998   0.1443369   1.3265853  )
         6           Se  tau(   6) = (   0.0000000   0.5773493   1.3265853  )
         7           Se  tau(   7) = (   0.7499995   0.1443369   1.3265853  )
         8           Se  tau(   8) = (   0.4999997   0.5773493   1.3265853  )
         9           Se  tau(   9) = (  -0.0000005   0.2886747   0.7688546  )
        10           Se  tau(  10) = (  -0.2500003   0.7216871   0.7688546  )
        11           Se  tau(  11) = (   0.4999992   0.2886747   0.7688546  )
        12           Se  tau(  12) = (   0.2499994   0.7216871   0.7688546  )
        13           Se  tau(  13) = (   0.2499998   0.1443369   1.8165746  )
        14           Se  tau(  14) = (   0.0000000   0.5773493   1.8165746  )
        15           Se  tau(  15) = (   0.7499995   0.1443369   1.8165746  )
        16           Se  tau(  16) = (   0.4999997   0.5773493   1.8165746  )
        17           Se  tau(  17) = (  -0.0000005   0.2886747   0.2788653  )
        18           Se  tau(  18) = (  -0.2500003   0.7216871   0.2788653  )
        19           Se  tau(  19) = (   0.4999992   0.2886747   0.2788653  )
        20           Se  tau(  20) = (   0.2499994   0.7216871   0.2788653  )
        21           W   tau(  21) = (   0.2499998   0.1443369   0.5238600  )
        22           W   tau(  22) = (   0.0000000   0.5773493   0.5238600  )
        23           W   tau(  23) = (   0.7499995   0.1443369   0.5238600  )
        24           W   tau(  24) = (   0.4999997   0.5773493   0.5238600  )

     number of k points=     2  gaussian smearing, width (Ry)=  0.0100
                       cart. coord. in units 2pi/alat
        k(    1) = (   0.0000000   0.0000000   0.0000000), wk =   0.2500000
        k(    2) = (   0.0000000  -0.5773503   0.0000000), wk =   0.7500000

     Dense  grid:   469503 G-vectors     FFT dimensions: (  80,  80, 180)

     Smooth grid:   139185 G-vectors     FFT dimensions: (  54,  54, 120)

     Estimated max dynamical RAM per process >       2.14 GB
     Generating pointlists ...
     new r_m :   0.1562 (alat units)  1.8843 (a.u.) for type    1
     new r_m :   0.1562 (alat units)  1.8843 (a.u.) for type    2
     new r_m :   0.1562 (alat units)  1.8843 (a.u.) for type    3

     Initial potential from superposition of free atoms

     starting charge  207.99129, renormalised to  208.00000
     Starting wfcs are  152 randomized atomic wfcs

     total cpu time spent up to now is       18.9 secs

     Self-consistent Calculation

     iteration #  1     ecut=    47.07 Ry     beta= 0.40
     Davidson diagonalization with overlap
     ethr =  1.00E-02,  avg # of iterations =  2.8

     Threshold (ethr) on eigenvalues was too large:
     Diagonalizing with lowered threshold

     Davidson diagonalization with overlap
     ethr =  4.69E-04,  avg # of iterations =  1.5

     total cpu time spent up to now is       46.8 secs

     total energy              =   -1620.99337705 Ry
     Harris-Foulkes estimate   =   -1621.16371648 Ry
     estimated scf accuracy    <       0.98140517 Ry

     total magnetization       =     0.04 Bohr mag/cell
     absolute magnetization    =     2.27 Bohr mag/cell

     iteration #  2     ecut=    47.07 Ry     beta= 0.40
     Davidson diagonalization with overlap
     ethr =  4.72E-04,  avg # of iterations =  4.5

     total cpu time spent up to now is       63.5 secs

     total energy              =   -1620.97958781 Ry
     Harris-Foulkes estimate   =   -1621.18091999 Ry
     estimated scf accuracy    <       0.73480600 Ry

     total magnetization       =     0.58 Bohr mag/cell
     absolute magnetization    =     1.77 Bohr mag/cell

     iteration #  3     ecut=    47.07 Ry     beta= 0.40
     Davidson diagonalization with overlap
     ethr =  3.53E-04,  avg # of iterations =  3.0

     total cpu time spent up to now is       79.3 secs

     total energy              =   -1621.18193013 Ry
     Harris-Foulkes estimate   =   -1621.18695363 Ry
     estimated scf accuracy    <       0.29025110 Ry

     total magnetization       =     0.02 Bohr mag/cell
     absolute magnetization    =     1.40 Bohr mag/cell

     iteration #  4     ecut=    47.07 Ry     beta= 0.40
     Davidson diagonalization with overlap
     ethr =  1.40E-04,  avg # of iterations =  2.0

     total cpu time spent up to now is       94.4 secs

     total energy              =   -1621.20740593 Ry
     Harris-Foulkes estimate   =   -1621.20350287 Ry
     estimated scf accuracy    <       0.03408145 Ry

     total magnetization       =     0.01 Bohr mag/cell
     absolute magnetization    =     0.82 Bohr mag/cell

     iteration #  5     ecut=    47.07 Ry     beta= 0.40
     Davidson diagonalization with overlap
     ethr =  1.64E-05,  avg # of iterations =  3.2

     total cpu time spent up to now is      110.8 secs

     total energy              =   -1621.21540590 Ry
     Harris-Foulkes estimate   =   -1621.21556830 Ry
     estimated scf accuracy    <       0.00566630 Ry

     total magnetization       =     0.01 Bohr mag/cell
     absolute magnetization    =     0.36 Bohr mag/cell

     iteration #  6     ecut=    47.07 Ry     beta= 0.40
     Davidson diagonalization with overlap
     ethr =  2.72E-06,  avg # of iterations =  6.8

     total cpu time spent up to now is      128.2 secs

     total energy              =   -1621.21588704 Ry
     Harris-Foulkes estimate   =   -1621.21632382 Ry
     estimated scf accuracy    <       0.00280757 Ry

     total magnetization       =     0.01 Bohr mag/cell
     absolute magnetization    =     0.24 Bohr mag/cell

     iteration #  7     ecut=    47.07 Ry     beta= 0.40
     Davidson diagonalization with overlap
     ethr =  1.35E-06,  avg # of iterations =  2.5

     total cpu time spent up to now is      143.8 secs

     total energy              =   -1621.21613746 Ry
     Harris-Foulkes estimate   =   -1621.21678876 Ry
     estimated scf accuracy    <       0.00519839 Ry

     total magnetization       =     0.00 Bohr mag/cell
     absolute magnetization    =     0.18 Bohr mag/cell

     iteration #  8     ecut=    47.07 Ry     beta= 0.40
     Davidson diagonalization with overlap
     ethr =  1.35E-06,  avg # of iterations =  2.0

     total cpu time spent up to now is      158.8 secs

     total energy              =   -1621.21664962 Ry
     Harris-Foulkes estimate   =   -1621.21655952 Ry
     estimated scf accuracy    <       0.00022092 Ry

     total magnetization       =     0.00 Bohr mag/cell
     absolute magnetization    =     0.14 Bohr mag/cell

     iteration #  9     ecut=    47.07 Ry     beta= 0.40
     Davidson diagonalization with overlap
     ethr =  1.06E-07,  avg # of iterations =  3.0

     total cpu time spent up to now is      175.1 secs

     total energy              =   -1621.21673101 Ry
     Harris-Foulkes estimate   =   -1621.21670819 Ry
     estimated scf accuracy    <       0.00011571 Ry

     total magnetization       =     0.00 Bohr mag/cell
     absolute magnetization    =     0.09 Bohr mag/cell

     iteration # 10     ecut=    47.07 Ry     beta= 0.40
     Davidson diagonalization with overlap
     ethr =  5.56E-08,  avg # of iterations =  4.5

     total cpu time spent up to now is      192.5 secs

     total energy              =   -1621.21678000 Ry
     Harris-Foulkes estimate   =   -1621.21675270 Ry
     estimated scf accuracy    <       0.00001366 Ry

     total magnetization       =     0.00 Bohr mag/cell
     absolute magnetization    =     0.06 Bohr mag/cell

     iteration # 11     ecut=    47.07 Ry     beta= 0.40
     Davidson diagonalization with overlap
     ethr =  6.57E-09,  avg # of iterations =  3.2

     total cpu time spent up to now is      210.0 secs

     total energy              =   -1621.21679326 Ry
     Harris-Foulkes estimate   =   -1621.21678755 Ry
     estimated scf accuracy    <       0.00000209 Ry

     total magnetization       =     0.00 Bohr mag/cell
     absolute magnetization    =     0.03 Bohr mag/cell

     iteration # 12     ecut=    47.07 Ry     beta= 0.40
     Davidson diagonalization with overlap
     ethr =  1.00E-09,  avg # of iterations =  4.8

     Magnetic moment per site:
     atom:    1    charge:   10.9440    magn:    0.0000    constr:    0.0000
     atom:    2    charge:   10.9440    magn:    0.0000    constr:    0.0000
     atom:    3    charge:   10.9440    magn:    0.0000    constr:    0.0000
     atom:    4    charge:   10.9440    magn:    0.0000    constr:    0.0000
     atom:    5    charge:    3.7206    magn:    0.0000    constr:    0.0000
     atom:    6    charge:    3.7206    magn:    0.0000    constr:    0.0000
     atom:    7    charge:    3.7206    magn:    0.0000    constr:    0.0000
     atom:    8    charge:    3.7206    magn:    0.0000    constr:    0.0000
     atom:    9    charge:    3.6581    magn:   -0.0003    constr:    0.0000
     atom:   10    charge:    3.6581    magn:   -0.0003    constr:    0.0000
     atom:   11    charge:    3.6582    magn:   -0.0003    constr:    0.0000
     atom:   12    charge:    3.6581    magn:   -0.0003    constr:    0.0000
     atom:   13    charge:    3.7205    magn:    0.0000    constr:    0.0000
     atom:   14    charge:    3.7206    magn:    0.0000    constr:    0.0000
     atom:   15    charge:    3.7205    magn:    0.0000    constr:    0.0000
     atom:   16    charge:    3.7205    magn:    0.0000    constr:    0.0000
     atom:   17    charge:    3.6582    magn:   -0.0003    constr:    0.0000
     atom:   18    charge:    3.6582    magn:   -0.0003    constr:    0.0000
     atom:   19    charge:    3.6583    magn:   -0.0003    constr:    0.0000
     atom:   20    charge:    3.6582    magn:   -0.0003    constr:    0.0000
     atom:   21    charge:   10.5891    magn:    0.0007    constr:    0.0000
     atom:   22    charge:   10.5890    magn:    0.0007    constr:    0.0000
     atom:   23    charge:   10.5891    magn:    0.0007    constr:    0.0000
     atom:   24    charge:   10.5891    magn:    0.0007    constr:    0.0000

     total cpu time spent up to now is      228.3 secs

     End of self-consistent calculation

 ------ SPIN UP ------------


          k = 0.0000 0.0000 0.0000 ( 17401 PWs)   bands (ev):

   -62.5967 -62.5795 -62.5795 -62.5794 -27.1635 -27.1634 -27.1634 -27.0016
   -26.9279 -26.9278 -26.9278 -26.8930 -26.8930 -26.8930 -26.8113 -26.8112
   -11.4919 -11.4919 -11.4919 -11.4549 -11.4549 -11.4548 -11.3276 -11.3276
   -11.2466 -11.1917 -11.1917 -11.1917 -11.1369 -11.1368 -11.0494 -11.0494
   -11.0493 -11.0399 -11.0399 -11.0399  -6.5433  -4.5177  -4.0721  -3.3066
    -3.3065  -3.3064  -2.7064  -2.0992  -2.0990  -2.0989  -1.8142  -1.8140
    -1.8139  -1.2767  -1.2765  -1.2765   1.1165   1.1166   1.1167   3.0644
     4.0683   4.0684   4.0685   4.3636   4.3636   4.3637   4.3726   5.5208
     5.5209   5.5210   5.7568   5.7569   5.7570   6.4516   6.4517   6.4518
     7.2861   7.6115   7.6116   7.6116   8.0262   8.0262   8.0262   8.1900
     8.1900   8.9859   8.9860   8.9860   9.4469   9.6157   9.6157   9.9761
     9.9762   9.9762  10.1241  10.1241  10.1242  10.1599  10.1600  10.1601
    10.5609  10.5609  10.5610  10.8568  10.9625  10.9625  11.2655  11.2656
    11.2657  12.0123  12.0124  13.3538  13.3538  13.3539  13.8615  13.8615
    13.8615  13.8948  14.3324  14.3324  14.3325  14.5103  14.5104  14.9642
    14.9642  15.3602  15.3602  15.3602  15.3967

          k = 0.0000-0.5774 0.0000 ( 17400 PWs)   bands (ev):

   -62.5881 -62.5881 -62.5795 -62.5794 -27.0995 -27.0995 -26.9903 -26.9903
   -26.9649 -26.9649 -26.9595 -26.9595 -26.9279 -26.9279 -26.8523 -26.8523
   -11.4086 -11.4085 -11.4085 -11.4085 -11.3755 -11.3755 -11.3053 -11.3053
   -11.2397 -11.2396 -11.1861 -11.1861 -11.1681 -11.1681 -11.1643 -11.1643
   -11.1460 -11.1460 -11.0465 -11.0464  -5.4027  -5.4026  -3.4872  -3.4870
    -3.4787  -3.4786  -2.9651  -2.9650  -2.3047  -2.3045  -2.1411  -2.1409
    -1.7905  -1.7903  -1.3668  -1.3667   2.3816   2.3817   3.6537   3.6537
     4.9268   4.9270   5.0688   5.0689   5.2093   5.2094   5.4221   5.4222
     5.4759   5.4760   6.0208   6.0209   6.0340   6.0340   6.4127   6.4128
     6.7908   6.7909   6.9340   6.9340   7.3325   7.3325   7.5394   7.5394
     7.5967   7.5967   8.1247   8.1247   8.4200   8.4201   8.6508   8.6508
     9.1508   9.1509   9.1985   9.1986   9.2706   9.2707   9.8947   9.8948
    10.1067  10.1067  10.1669  10.1670  10.4576  10.4577  11.1897  11.1898
    12.5500  12.5501  13.3204  13.3204  13.5690  13.5690  13.9796  13.9796
    13.9941  13.9942  14.2369  14.2369  14.3158  14.3158  14.5075  14.5075
    14.5112  14.5113  14.7720  14.7721  15.8318

 ------ SPIN DOWN ----------


          k = 0.0000 0.0000 0.0000 ( 17401 PWs)   bands (ev):

   -62.5964 -62.5792 -62.5791 -62.5791 -27.1627 -27.1626 -27.1626 -27.0003
   -26.9265 -26.9265 -26.9264 -26.8922 -26.8922 -26.8922 -26.8104 -26.8104
   -11.4919 -11.4919 -11.4919 -11.4549 -11.4548 -11.4548 -11.3276 -11.3276
   -11.2466 -11.1917 -11.1917 -11.1916 -11.1368 -11.1368 -11.0494 -11.0494
   -11.0493 -11.0399 -11.0398 -11.0398  -6.5432  -4.5190  -4.0720  -3.3066
    -3.3065  -3.3064  -2.7081  -2.1008  -2.1005  -2.1004  -1.8157  -1.8155
    -1.8154  -1.2766  -1.2765  -1.2764   1.1166   1.1167   1.1168   3.0645
     4.0677   4.0677   4.0678   4.3637   4.3638   4.3638   4.3722   5.5198
     5.5199   5.5200   5.7569   5.7570   5.7571   6.4516   6.4518   6.4518
     7.2860   7.6119   7.6119   7.6120   8.0263   8.0263   8.0263   8.1903
     8.1903   8.9854   8.9856   8.9856   9.4460   9.6165   9.6165   9.9761
     9.9762   9.9762  10.1226  10.1227  10.1227  10.1600  10.1601  10.1601
    10.5611  10.5611  10.5611  10.8582  10.9626  10.9626  11.2658  11.2659
    11.2659  12.0125  12.0125  13.3539  13.3539  13.3540  13.8628  13.8628
    13.8628  13.8950  14.3335  14.3335  14.3335  14.5098  14.5098  14.9631
    14.9631  15.3602  15.3602  15.3603  15.3968

          k = 0.0000-0.5774 0.0000 ( 17400 PWs)   bands (ev):

   -62.5878 -62.5878 -62.5791 -62.5791 -27.0987 -27.0987 -26.9895 -26.9894
   -26.9635 -26.9635 -26.9586 -26.9586 -26.9265 -26.9265 -26.8515 -26.8515
   -11.4086 -11.4085 -11.4085 -11.4084 -11.3755 -11.3754 -11.3053 -11.3053
   -11.2396 -11.2396 -11.1861 -11.1861 -11.1681 -11.1680 -11.1643 -11.1643
   -11.1460 -11.1460 -11.0464 -11.0464  -5.4026  -5.4025  -3.4886  -3.4884
    -3.4786  -3.4785  -2.9651  -2.9649  -2.3063  -2.3061  -2.1426  -2.1424
    -1.7920  -1.7918  -1.3667  -1.3666   2.3817   2.3818   3.6538   3.6539
     4.9264   4.9265   5.0689   5.0690   5.2091   5.2092   5.4222   5.4223
     5.4755   5.4756   6.0209   6.0210   6.0341   6.0341   6.4121   6.4123
     6.7904   6.7906   6.9337   6.9337   7.3319   7.3320   7.5385   7.5386
     7.5968   7.5968   8.1249   8.1249   8.4205   8.4206   8.6506   8.6506
     9.1506   9.1507   9.1986   9.1987   9.2700   9.2701   9.8940   9.8940
    10.1077  10.1077  10.1670  10.1671  10.4577  10.4577  11.1899  11.1900
    12.5502  12.5503  13.3205  13.3205  13.5698  13.5698  13.9797  13.9798
    13.9938  13.9939  14.2372  14.2372  14.3169  14.3169  14.5081  14.5081
    14.5116  14.5116  14.7722  14.7722  15.8317

     the Fermi energy is    11.3410 ev

!    total energy              =   -1621.21679560 Ry
     Harris-Foulkes estimate   =   -1621.21679492 Ry
     estimated scf accuracy    <       0.00000039 Ry

     The total energy is the sum of the following terms:

     one-electron contribution =    -867.43137787 Ry
     hartree contribution      =     548.74916933 Ry
     xc contribution           =    -466.37338635 Ry
     ewald contribution        =    -836.15561854 Ry
     smearing contrib. (-TS)   =      -0.00558218 Ry

     total magnetization       =     0.00 Bohr mag/cell
     absolute magnetization    =     0.01 Bohr mag/cell

     convergence has been achieved in  12 iterations

     Writing output data file Si_exc1.save\

     init_run     :     60.77s CPU     15.03s WALL (       1 calls)
     electrons    :   1379.16s CPU    209.38s WALL (       1 calls)

     Called by init_run:
     wfcinit      :     23.81s CPU      4.09s WALL (       1 calls)
     potinit      :     10.20s CPU      1.12s WALL (       1 calls)
     hinit0       :      9.22s CPU      6.69s WALL (       1 calls)

     Called by electrons:
     c_bands      :    547.98s CPU     89.01s WALL (      13 calls)
     sum_band     :    533.83s CPU     77.75s WALL (      13 calls)
     v_of_rho     :     80.44s CPU      9.54s WALL (      13 calls)
     newd         :    225.47s CPU     33.81s WALL (      13 calls)
     mix_rho      :      9.34s CPU      1.66s WALL (      13 calls)

     Called by c_bands:
     init_us_2    :     12.33s CPU      1.23s WALL (     108 calls)
     cegterg      :    518.23s CPU     85.60s WALL (      52 calls)

     Called by sum_band:
     sum_band:bec :      0.80s CPU      0.15s WALL (      52 calls)
     addusdens    :    443.62s CPU     62.79s WALL (      13 calls)

     Called by *egterg:
     h_psi        :    352.77s CPU     57.83s WALL (     231 calls)
     s_psi        :     33.23s CPU      5.84s WALL (     231 calls)
     g_psi        :      4.27s CPU      0.34s WALL (     175 calls)
     cdiaghg      :     23.73s CPU      4.21s WALL (     223 calls)

     Called by h_psi:
     h_psi:pot    :    344.58s CPU     56.86s WALL (     231 calls)
     h_psi:calbec :     29.08s CPU      5.52s WALL (     231 calls)
     vloc_psi     :    280.81s CPU     45.51s WALL (     231 calls)
     add_vuspsi   :     34.69s CPU      5.84s WALL (     231 calls)

     General routines
     calbec       :     40.06s CPU      7.60s WALL (     283 calls)
     fft          :     10.78s CPU      1.79s WALL (     321 calls)
     ffts         :      0.19s CPU      0.07s WALL (      52 calls)
     fftw         :    246.39s CPU     41.36s WALL (   38312 calls)
     interpolate  :      2.34s CPU      0.49s WALL (      26 calls)

     Parallel routines

     PWSCF        :  24m 4.17s CPU   3m48.54s WALL


   This run was terminated on:   8:44:45  14May2021            

=------------------------------------------------------------------------------=
   JOB DONE.
=------------------------------------------------------------------------------=
