
     Program PWSCF v.6.4.1 starts on 19May2021 at 12:47:30 

     This program is part of the open-source Quantum ESPRESSO suite
     for quantum simulation of materials; please cite
         "P. Giannozzi et al., J. Phys.:Condens. Matter 21 395502 (2009);
         "P. Giannozzi et al., J. Phys.:Condens. Matter 29 465901 (2017);
          URL http://www.quantum-espresso.org", 
     in publications or presentations arising from this work. More details at
     http://www.quantum-espresso.org/quote

     Parallel version (MPI & OpenMP), running on      12 processor cores
     Number of MPI processes:                 1
     Threads/MPI process:                    12

     MPI processes distributed on     1 nodes
     Waiting for input...
     Reading input from standard input
Warning: card &BANDS ignored
Warning: card     LSYM           = .FALSE. ignored
Warning: card     SPIN_COMPONENT = 1 ignored
Warning: card / ignored

     Current dimensions of program PWSCF are:
     Max number of different atomic species (ntypx) = 10
     Max number of k-points (npk) =  40000
     Max angular momentum in pseudopotentials (lmaxx) =  3
     Message from routine iosys:
     wrong startingpot: use default (2)

     Atomic positions and unit cell read from directory:
     ./out/\Si_exc1.save\

     Message from routine read_upf::
     Pseudo file Se.pbe-n-rrkjus_psl.1.0.0.UPF has been fixed on the fly.
To avoid this message in the future, permanently fix 
 your pseudo files following these instructions: 
https://gitlab.com/QEF/q-e/blob/master/upftools/how_to_fix_upf.md

     Subspace diagonalization in iterative solution of the eigenvalue problem:
     a serial algorithm will be used


     G-vector sticks info
     --------------------
     sticks:   dense  smooth     PW     G-vecs:    dense   smooth      PW
     Sum         595     271     85                92021    27217    5029



     bravais-lattice index     =            4
     lattice parameter (alat)  =       6.2873  a.u.
     unit-cell volume          =    1621.7658 (a.u.)^3
     number of atoms/cell      =            6
     number of atomic types    =            2
     number of electrons       =        52.00
     number of Kohn-Sham states=           31
     kinetic-energy cutoff     =      25.0000  Ry
     charge density cutoff     =     225.0000  Ry
     Exchange-correlation      = PBE ( 1  4  3  4 0 0)

     celldm(1)=   6.287251  celldm(2)=   0.000000  celldm(3)=   7.534858
     celldm(4)=   0.000000  celldm(5)=   0.000000  celldm(6)=   0.000000

     crystal axes: (cart. coord. in units of alat)
               a(1) = (   1.000000   0.000000   0.000000 )  
               a(2) = (  -0.500000   0.866025   0.000000 )  
               a(3) = (   0.000000   0.000000   7.534858 )  

     reciprocal axes: (cart. coord. in units 2 pi/alat)
               b(1) = (  1.000000  0.577350 -0.000000 )  
               b(2) = (  0.000000  1.154701  0.000000 )  
               b(3) = (  0.000000 -0.000000  0.132717 )  


     PseudoPot. # 1 for W  read from file:
     ./pseudo\W.pbe-nsp-van.UPF
     MD5 check sum: d6466f82beb0ca8b88800d998c44bca0
     Pseudo is Ultrasoft + core correction, Zval = 14.0
     Generated by new atomic code, or converted to UPF format
     Using radial grid of  923 points,  6 beta functions with: 
                l(1) =   0
                l(2) =   0
                l(3) =   1
                l(4) =   1
                l(5) =   2
                l(6) =   2
     Q(r) pseudized with  6 coefficients,  rinner =    1.000   1.000   1.000
                                                       1.000   1.000

     PseudoPot. # 2 for Se read from file:
     ./pseudo\Se.pbe-n-rrkjus_psl.1.0.0.UPF
     MD5 check sum: b4fde84b927950421ac83de11f467c93
     Pseudo is Ultrasoft + core correction, Zval =  6.0
     Generated using "atomic" code by A. Dal Corso v.5.1.2
     Using radial grid of 1211 points,  4 beta functions with: 
                l(1) =   0
                l(2) =   0
                l(3) =   1
                l(4) =   1
     Q(r) pseudized with 0 coefficients 


     atomic species   valence    mass     pseudopotential
        W             14.00   183.84000     W ( 1.00)
        Se             6.00    78.96000     Se( 1.00)

     Starting magnetic structure 
     atomic species   magnetization
        W            0.200
        Se           0.000

     12 Sym. Ops., with inversion, found



   Cartesian axes

     site n.     atom                  positions (alat units)
         1           W   tau(   1) = (   0.5000000   0.2886750   1.1322987  )
         2           W   tau(   2) = (   0.0000000   0.5773500   6.4025446  )
         3           Se  tau(   3) = (   0.0000000   0.5773500   1.6376154  )
         4           Se  tau(   4) = (   0.5000000   0.2886750   6.9078616  )
         5           Se  tau(   5) = (   0.0000000   0.5773500   0.6269817  )
         6           Se  tau(   6) = (   0.5000000   0.2886750   5.8972279  )

     number of k points=   183  gaussian smearing, width (Ry)=  0.0100

     Number of k-points >= 100: set verbosity='high' to print them.

     Dense  grid:    92021 G-vectors     FFT dimensions: (  30,  30, 240)

     Smooth grid:    27217 G-vectors     FFT dimensions: (  24,  24, 160)

     Estimated max dynamical RAM per process >     316.46 MB
     Generating pointlists ...
     new r_m :   0.3165 (alat units)  1.9899 (a.u.) for type    1
     new r_m :   0.3165 (alat units)  1.9899 (a.u.) for type    2

     Check: negative core charge=   -0.000001

     The potential is recalculated from file :
     ./out/\Si_exc1.save\charge-density


     negative rho (up, down):  5.095E-03 0.000E+00
     Starting wfcs are   42 randomized atomic wfcs

     Band Structure Calculation
     Davidson diagonalization with overlap

     ethr =  1.92E-09,  avg # of iterations = 22.1

     total cpu time spent up to now is      169.3 secs

     End of band structure calculation

     Number of k-points >= 100: set verbosity='high' to print the bands.

     the Fermi energy is     3.9125 ev

     Writing output data file Si_exc1.save\

     init_run     :      4.59s CPU      1.89s WALL (       1 calls)
     electrons    :    977.14s CPU    164.66s WALL (       1 calls)

     Called by init_run:
     wfcinit      :      0.00s CPU      0.00s WALL (       1 calls)
     potinit      :      1.12s CPU      0.14s WALL (       1 calls)
     hinit0       :      1.77s CPU      1.42s WALL (       1 calls)

     Called by electrons:
     c_bands      :    977.14s CPU    164.66s WALL (       1 calls)
     v_of_rho     :      1.05s CPU      0.12s WALL (       1 calls)
     newd         :      1.67s CPU      0.27s WALL (       1 calls)

     Called by c_bands:
     init_us_2    :      2.92s CPU      0.29s WALL (     366 calls)
     cegterg      :    854.42s CPU    144.07s WALL (     536 calls)

     Called by sum_band:

     Called by *egterg:
     h_psi        :    643.34s CPU    107.83s WALL (    8985 calls)
     s_psi        :     18.31s CPU      3.07s WALL (    8985 calls)
     g_psi        :      6.61s CPU      0.99s WALL (    8083 calls)
     cdiaghg      :    104.05s CPU     17.72s WALL (    8449 calls)

     Called by h_psi:
     h_psi:pot    :    632.98s CPU    105.76s WALL (    8985 calls)
     h_psi:calbec :     21.33s CPU      3.78s WALL (    8985 calls)
     vloc_psi     :    593.12s CPU     98.62s WALL (    8985 calls)
     add_vuspsi   :     18.53s CPU      3.33s WALL (    8985 calls)

     General routines
     calbec       :     21.33s CPU      3.77s WALL (    8985 calls)
     fft          :      0.00s CPU      0.04s WALL (      23 calls)
     ffts         :      0.00s CPU      0.00s WALL (       2 calls)
     fftw         :    368.91s CPU     61.65s WALL (  280764 calls)
     interpolate  :      0.00s CPU      0.01s WALL (       2 calls)
     davcio       :      0.59s CPU      0.36s WALL (     732 calls)

     Parallel routines

     PWSCF        :  16m25.95s CPU   2m53.57s WALL


   This run was terminated on:  12:50:23  19May2021            

=------------------------------------------------------------------------------=
   JOB DONE.
=------------------------------------------------------------------------------=
