
     Program PWSCF v.6.4.1 starts on 14May2021 at  8:22:56 

     This program is part of the open-source Quantum ESPRESSO suite
     for quantum simulation of materials; please cite
         "P. Giannozzi et al., J. Phys.:Condens. Matter 21 395502 (2009);
         "P. Giannozzi et al., J. Phys.:Condens. Matter 29 465901 (2017);
          URL http://www.quantum-espresso.org", 
     in publications or presentations arising from this work. More details at
     http://www.quantum-espresso.org/quote

     Parallel version (MPI & OpenMP), running on      12 processor cores
     Number of MPI processes:                 1
     Threads/MPI process:                    12

     MPI processes distributed on     1 nodes
     Waiting for input...
     Reading input from standard input

     Current dimensions of program PWSCF are:
     Max number of different atomic species (ntypx) = 10
     Max number of k-points (npk) =  40000
     Max angular momentum in pseudopotentials (lmaxx) =  3
     Message from routine read_upf::
     Pseudo file Se.pbe-n-rrkjus_psl.1.0.0.UPF has been fixed on the fly.
To avoid this message in the future, permanently fix 
 your pseudo files following these instructions: 
https://gitlab.com/QEF/q-e/blob/master/upftools/how_to_fix_upf.md

     Subspace diagonalization in iterative solution of the eigenvalue problem:
     a serial algorithm will be used


     G-vector sticks info
     --------------------
     sticks:   dense  smooth     PW     G-vecs:    dense   smooth      PW
     Sum         595     271     85                92021    27217    4849



     bravais-lattice index     =            4
     lattice parameter (alat)  =       6.2873  a.u.
     unit-cell volume          =    1621.7658 (a.u.)^3
     number of atoms/cell      =            6
     number of atomic types    =            2
     number of electrons       =        52.00
     number of Kohn-Sham states=           31
     kinetic-energy cutoff     =      25.0000  Ry
     charge density cutoff     =     225.0000  Ry
     convergence threshold     =      1.0E-06
     mixing beta               =       0.4000
     number of iterations used =            8  plain     mixing
     Exchange-correlation      = PBE ( 1  4  3  4 0 0)

     celldm(1)=   6.287251  celldm(2)=   0.000000  celldm(3)=   7.534858
     celldm(4)=   0.000000  celldm(5)=   0.000000  celldm(6)=   0.000000

     crystal axes: (cart. coord. in units of alat)
               a(1) = (   1.000000   0.000000   0.000000 )  
               a(2) = (  -0.500000   0.866025   0.000000 )  
               a(3) = (   0.000000   0.000000   7.534858 )  

     reciprocal axes: (cart. coord. in units 2 pi/alat)
               b(1) = (  1.000000  0.577350 -0.000000 )  
               b(2) = (  0.000000  1.154701  0.000000 )  
               b(3) = (  0.000000 -0.000000  0.132717 )  


     PseudoPot. # 1 for W  read from file:
     ./pseudo\W.pbe-nsp-van.UPF
     MD5 check sum: d6466f82beb0ca8b88800d998c44bca0
     Pseudo is Ultrasoft + core correction, Zval = 14.0
     Generated by new atomic code, or converted to UPF format
     Using radial grid of  923 points,  6 beta functions with: 
                l(1) =   0
                l(2) =   0
                l(3) =   1
                l(4) =   1
                l(5) =   2
                l(6) =   2
     Q(r) pseudized with  6 coefficients,  rinner =    1.000   1.000   1.000
                                                       1.000   1.000

     PseudoPot. # 2 for Se read from file:
     ./pseudo\Se.pbe-n-rrkjus_psl.1.0.0.UPF
     MD5 check sum: b4fde84b927950421ac83de11f467c93
     Pseudo is Ultrasoft + core correction, Zval =  6.0
     Generated using "atomic" code by A. Dal Corso v.5.1.2
     Using radial grid of 1211 points,  4 beta functions with: 
                l(1) =   0
                l(2) =   0
                l(3) =   1
                l(4) =   1
     Q(r) pseudized with 0 coefficients 


     atomic species   valence    mass     pseudopotential
        W             14.00   183.84000     W ( 1.00)
        Se             6.00    78.96000     Se( 1.00)

     Starting magnetic structure 
     atomic species   magnetization
        W            0.200
        Se           0.000

     12 Sym. Ops., with inversion, found



   Cartesian axes

     site n.     atom                  positions (alat units)
         1           W   tau(   1) = (   0.5000000   0.2886750   1.1322987  )
         2           W   tau(   2) = (  -0.0000000   0.5773500   6.4025446  )
         3           Se  tau(   3) = (  -0.0000000   0.5773500   1.6376154  )
         4           Se  tau(   4) = (   0.5000000   0.2886750   6.9078616  )
         5           Se  tau(   5) = (  -0.0000000   0.5773500   0.6269817  )
         6           Se  tau(   6) = (   0.5000000   0.2886750   5.8972279  )

     number of k points=     4  gaussian smearing, width (Ry)=  0.0100
                       cart. coord. in units 2pi/alat
        k(    1) = (   0.0000000   0.0000000   0.0000000), wk =   0.0625000
        k(    2) = (   0.0000000   0.2886751   0.0000000), wk =   0.3750000
        k(    3) = (   0.0000000  -0.5773503   0.0000000), wk =   0.1875000
        k(    4) = (   0.2500000   0.4330127   0.0000000), wk =   0.3750000

     Dense  grid:    92021 G-vectors     FFT dimensions: (  30,  30, 240)

     Smooth grid:    27217 G-vectors     FFT dimensions: (  24,  24, 160)

     Estimated max dynamical RAM per process >     380.45 MB
     Generating pointlists ...
     new r_m :   0.3165 (alat units)  1.9899 (a.u.) for type    1
     new r_m :   0.3165 (alat units)  1.9899 (a.u.) for type    2

     Check: negative core charge=   -0.000001

     Initial potential from superposition of free atoms

     starting charge   51.99872, renormalised to   52.00000

     negative rho (up, down):  4.916E-03 5.074E-03
     Starting wfcs are   42 randomized atomic wfcs

     total cpu time spent up to now is        4.1 secs

     Self-consistent Calculation

     iteration #  1     ecut=    25.00 Ry     beta= 0.40
     Davidson diagonalization with overlap
     ethr =  1.00E-02,  avg # of iterations =  2.1

     Threshold (ethr) on eigenvalues was too large:
     Diagonalizing with lowered threshold

     Davidson diagonalization with overlap
     ethr =  4.65E-04,  avg # of iterations =  1.6

     negative rho (up, down):  5.058E-03 4.167E-03

     total cpu time spent up to now is        6.8 secs

     total energy              =    -401.93760179 Ry
     Harris-Foulkes estimate   =    -401.91378541 Ry
     estimated scf accuracy    <       0.24622731 Ry

     total magnetization       =     0.00 Bohr mag/cell
     absolute magnetization    =     1.33 Bohr mag/cell

     iteration #  2     ecut=    25.00 Ry     beta= 0.40
     Davidson diagonalization with overlap
     ethr =  4.74E-04,  avg # of iterations =  2.1

     negative rho (up, down):  5.080E-03 5.296E-03

     total cpu time spent up to now is        8.4 secs

     total energy              =    -401.97828023 Ry
     Harris-Foulkes estimate   =    -401.95920275 Ry
     estimated scf accuracy    <       0.07546467 Ry

     total magnetization       =     0.00 Bohr mag/cell
     absolute magnetization    =     1.04 Bohr mag/cell

     iteration #  3     ecut=    25.00 Ry     beta= 0.40
     Davidson diagonalization with overlap
     ethr =  1.45E-04,  avg # of iterations =  2.5

     negative rho (up, down):  5.136E-03 7.278E-03

     total cpu time spent up to now is       10.0 secs

     total energy              =    -401.99388416 Ry
     Harris-Foulkes estimate   =    -401.99696752 Ry
     estimated scf accuracy    <       0.07080825 Ry

     total magnetization       =     0.00 Bohr mag/cell
     absolute magnetization    =     0.69 Bohr mag/cell

     iteration #  4     ecut=    25.00 Ry     beta= 0.40
     Davidson diagonalization with overlap
     ethr =  1.36E-04,  avg # of iterations =  2.1

     negative rho (up, down):  5.115E-03 1.177E-02

     total cpu time spent up to now is       11.6 secs

     total energy              =    -402.00731115 Ry
     Harris-Foulkes estimate   =    -402.00347047 Ry
     estimated scf accuracy    <       0.00813559 Ry

     total magnetization       =    -0.00 Bohr mag/cell
     absolute magnetization    =     0.48 Bohr mag/cell

     iteration #  5     ecut=    25.00 Ry     beta= 0.40
     Davidson diagonalization with overlap
     ethr =  1.56E-05,  avg # of iterations =  4.1

     negative rho (up, down):  5.114E-03 9.352E-03

     total cpu time spent up to now is       13.4 secs

     total energy              =    -402.00725177 Ry
     Harris-Foulkes estimate   =    -402.01176261 Ry
     estimated scf accuracy    <       0.02992292 Ry

     total magnetization       =     0.00 Bohr mag/cell
     absolute magnetization    =     0.25 Bohr mag/cell

     iteration #  6     ecut=    25.00 Ry     beta= 0.40
     Davidson diagonalization with overlap
     ethr =  1.56E-05,  avg # of iterations =  3.9

     negative rho (up, down):  5.099E-03 6.657E-03

     total cpu time spent up to now is       15.2 secs

     total energy              =    -402.01012904 Ry
     Harris-Foulkes estimate   =    -402.00979915 Ry
     estimated scf accuracy    <       0.00018042 Ry

     total magnetization       =     0.00 Bohr mag/cell
     absolute magnetization    =     0.18 Bohr mag/cell

     iteration #  7     ecut=    25.00 Ry     beta= 0.40
     Davidson diagonalization with overlap
     ethr =  3.47E-07,  avg # of iterations =  3.5

     negative rho (up, down):  5.094E-03 4.620E-03

     total cpu time spent up to now is       16.9 secs

     total energy              =    -402.01031363 Ry
     Harris-Foulkes estimate   =    -402.01025545 Ry
     estimated scf accuracy    <       0.00004165 Ry

     total magnetization       =     0.00 Bohr mag/cell
     absolute magnetization    =     0.08 Bohr mag/cell

     iteration #  8     ecut=    25.00 Ry     beta= 0.40
     Davidson diagonalization with overlap
     ethr =  8.01E-08,  avg # of iterations =  3.2

     negative rho (up, down):  5.092E-03 3.333E-03

     total cpu time spent up to now is       18.6 secs

     total energy              =    -402.01035148 Ry
     Harris-Foulkes estimate   =    -402.01033149 Ry
     estimated scf accuracy    <       0.00000697 Ry

     total magnetization       =    -0.00 Bohr mag/cell
     absolute magnetization    =     0.04 Bohr mag/cell

     iteration #  9     ecut=    25.00 Ry     beta= 0.40
     Davidson diagonalization with overlap
     ethr =  1.34E-08,  avg # of iterations =  3.8

     negative rho (up, down):  5.095E-03 0.000E+00

     Magnetic moment per site:
     atom:    1    charge:   10.8254    magn:    0.0015    constr:    0.0000
     atom:    2    charge:   10.8254    magn:    0.0015    constr:    0.0000
     atom:    3    charge:    3.9214    magn:   -0.0008    constr:    0.0000
     atom:    4    charge:    3.9212    magn:   -0.0008    constr:    0.0000
     atom:    5    charge:    3.9212    magn:   -0.0008    constr:    0.0000
     atom:    6    charge:    3.9214    magn:   -0.0008    constr:    0.0000

     total cpu time spent up to now is       20.4 secs

     End of self-consistent calculation

 ------ SPIN UP ------------


          k = 0.0000 0.0000 0.0000 (  3303 PWs)   bands (ev):

   -71.0892 -71.0844 -35.3169 -35.3121 -35.2163 -35.2163 -35.2115 -35.2115
   -11.7041 -11.6880 -10.4802 -10.4523  -3.2171  -3.0867   0.5983   0.6581
     0.6581   0.6630   0.6630   1.0286   1.7484   1.7484   1.7540   1.7540
     2.5655   2.8173   5.8514   5.8514   5.8570   5.8570   5.9994

          k = 0.0000 0.2887 0.0000 (  3385 PWs)   bands (ev):

   -71.0849 -71.0801 -35.3193 -35.3145 -35.2978 -35.2930 -35.2409 -35.2361
   -10.8846 -10.8696 -10.0749 -10.0537  -2.2624  -2.1496  -1.2584  -1.2390
    -0.6443  -0.5525   0.7255   0.7320   1.2215   1.3788   1.3803   1.3872
     2.0664   2.0961   4.7773   5.0234   5.3157   5.3334   5.6199

          k = 0.0000-0.5774 0.0000 (  3434 PWs)   bands (ev):

   -71.0806 -71.0758 -35.4199 -35.4151 -35.2787 -35.2739 -35.2654 -35.2606
    -9.7988  -9.7908  -9.5682  -9.5603  -3.2786  -3.2559  -2.0442  -2.0266
    -1.1952  -1.1250   0.0230   0.0300   0.8244   0.8388   2.0085   2.0088
     2.0201   2.0242   5.3314   5.3373   5.6590   5.7113   6.5102

          k = 0.2500 0.4330 0.0000 (  3441 PWs)   bands (ev):

   -71.0806 -71.0758 -35.3825 -35.3777 -35.3036 -35.2988 -35.2787 -35.2739
    -9.8344  -9.8249  -9.5627  -9.5525  -2.4425  -2.4338  -1.8710  -1.8577
    -1.0758  -1.0337  -0.4447  -0.3728  -0.1704  -0.1456   1.0416   1.0509
     2.4831   2.4968   4.9414   5.0862   5.6683   5.7109   5.8174

 ------ SPIN DOWN ----------


          k = 0.0000 0.0000 0.0000 (  3303 PWs)   bands (ev):

   -71.0889 -71.0841 -35.3147 -35.3099 -35.2152 -35.2152 -35.2104 -35.2104
   -11.7062 -11.6901 -10.4832 -10.4553  -3.2176  -3.0872   0.5969   0.6587
     0.6587   0.6635   0.6635   1.0270   1.7499   1.7499   1.7555   1.7555
     2.5684   2.8205   5.8509   5.8509   5.8565   5.8565   5.9975

          k = 0.0000 0.2887 0.0000 (  3385 PWs)   bands (ev):

   -71.0846 -71.0798 -35.3182 -35.3134 -35.2956 -35.2908 -35.2398 -35.2350
   -10.8870 -10.8720 -10.0778 -10.0565  -2.2627  -2.1500  -1.2590  -1.2397
    -0.6447  -0.5528   0.7265   0.7330   1.2199   1.3772   1.3798   1.3867
     2.0685   2.0981   4.7779   5.0240   5.3154   5.3331   5.6217

          k = 0.0000-0.5774 0.0000 (  3434 PWs)   bands (ev):

   -71.0803 -71.0755 -35.4188 -35.4140 -35.2765 -35.2717 -35.2643 -35.2595
    -9.8015  -9.7936  -9.5709  -9.5630  -3.2792  -3.2566  -2.0455  -2.0280
    -1.1950  -1.1249   0.0237   0.0308   0.8240   0.8383   2.0061   2.0091
     2.0205   2.0217   5.3336   5.3395   5.6610   5.7133   6.5110

          k = 0.2500 0.4330 0.0000 (  3441 PWs)   bands (ev):

   -71.0803 -71.0755 -35.3814 -35.3766 -35.3025 -35.2977 -35.2765 -35.2717
    -9.8371  -9.8276  -9.5655  -9.5553  -2.4429  -2.4343  -1.8715  -1.8582
    -1.0760  -1.0339  -0.4452  -0.3734  -0.1718  -0.1470   1.0409   1.0501
     2.4833   2.4970   4.9429   5.0877   5.6705   5.7129   5.8186

     the Fermi energy is     3.7306 ev

!    total energy              =    -402.01036433 Ry
     Harris-Foulkes estimate   =    -402.01036297 Ry
     estimated scf accuracy    <       0.00000063 Ry

     The total energy is the sum of the following terms:

     one-electron contribution =   -1834.57910105 Ry
     hartree contribution      =     922.85810276 Ry
     xc contribution           =    -108.57788794 Ry
     ewald contribution        =     618.28852190 Ry
     smearing contrib. (-TS)   =      -0.00000000 Ry

     total magnetization       =    -0.00 Bohr mag/cell
     absolute magnetization    =     0.01 Bohr mag/cell

     convergence has been achieved in   9 iterations

     Writing output data file Si_exc1.save\

     init_run     :      7.97s CPU      2.34s WALL (       1 calls)
     electrons    :    103.78s CPU     16.37s WALL (       1 calls)

     Called by init_run:
     wfcinit      :      2.48s CPU      0.44s WALL (       1 calls)
     potinit      :      1.61s CPU      0.20s WALL (       1 calls)
     hinit0       :      1.88s CPU      1.34s WALL (       1 calls)

     Called by electrons:
     c_bands      :     38.92s CPU      6.74s WALL (      10 calls)
     sum_band     :     37.66s CPU      5.72s WALL (      10 calls)
     v_of_rho     :     10.77s CPU      1.33s WALL (      10 calls)
     newd         :     17.81s CPU      2.70s WALL (      10 calls)
     mix_rho      :      0.97s CPU      0.15s WALL (      10 calls)

     Called by c_bands:
     init_us_2    :      0.88s CPU      0.13s WALL (     168 calls)
     cegterg      :     36.97s CPU      6.45s WALL (      80 calls)

     Called by sum_band:
     sum_band:bec :      0.23s CPU      0.02s WALL (      80 calls)
     addusdens    :     29.75s CPU      4.45s WALL (      10 calls)

     Called by *egterg:
     h_psi        :     30.09s CPU      5.22s WALL (     320 calls)
     s_psi        :      1.02s CPU      0.13s WALL (     320 calls)
     g_psi        :      0.00s CPU      0.03s WALL (     232 calls)
     cdiaghg      :      2.45s CPU      0.44s WALL (     304 calls)

     Called by h_psi:
     h_psi:pot    :     29.62s CPU      5.14s WALL (     320 calls)
     h_psi:calbec :      1.50s CPU      0.18s WALL (     320 calls)
     vloc_psi     :     27.47s CPU      4.79s WALL (     320 calls)
     add_vuspsi   :      0.66s CPU      0.17s WALL (     320 calls)

     General routines
     calbec       :      1.86s CPU      0.24s WALL (     400 calls)
     fft          :      0.73s CPU      0.14s WALL (     246 calls)
     ffts         :      0.19s CPU      0.01s WALL (      40 calls)
     fftw         :     19.61s CPU      3.41s WALL (   15852 calls)
     interpolate  :      0.38s CPU      0.05s WALL (      20 calls)

     Parallel routines

     PWSCF        :   1m53.58s CPU     20.51s WALL


   This run was terminated on:   8:23:17  14May2021            

=------------------------------------------------------------------------------=
   JOB DONE.
=------------------------------------------------------------------------------=
