
     Program PWSCF v.6.4.1 starts on 15May2021 at  9:52:17 

     This program is part of the open-source Quantum ESPRESSO suite
     for quantum simulation of materials; please cite
         "P. Giannozzi et al., J. Phys.:Condens. Matter 21 395502 (2009);
         "P. Giannozzi et al., J. Phys.:Condens. Matter 29 465901 (2017);
          URL http://www.quantum-espresso.org", 
     in publications or presentations arising from this work. More details at
     http://www.quantum-espresso.org/quote

     Parallel version (MPI & OpenMP), running on      12 processor cores
     Number of MPI processes:                 1
     Threads/MPI process:                    12

     MPI processes distributed on     1 nodes
     Waiting for input...
     Reading input from standard input

     Current dimensions of program PWSCF are:
     Max number of different atomic species (ntypx) = 10
     Max number of k-points (npk) =  40000
     Max angular momentum in pseudopotentials (lmaxx) =  3
     Message from routine iosys:
     wrong startingpot: use default (2)

     Atomic positions and unit cell read from directory:
     ./out/\Si_exc1.save\

     Message from routine read_upf::
     Pseudo file Sn.pbe-dn-rrkjus_psl.1.0.0.UPF has been fixed on the fly.
To avoid this message in the future, permanently fix 
 your pseudo files following these instructions: 
https://gitlab.com/QEF/q-e/blob/master/upftools/how_to_fix_upf.md
     Message from routine read_upf::
     Pseudo file Se.pbe-n-rrkjus_psl.1.0.0.UPF has been fixed on the fly.
To avoid this message in the future, permanently fix 
 your pseudo files following these instructions: 
https://gitlab.com/QEF/q-e/blob/master/upftools/how_to_fix_upf.md
               file Sn.pbe-dn-rrkjus_psl.1.0.0.UPF: wavefunction(s)  5S 4D renormalized

     Subspace diagonalization in iterative solution of the eigenvalue problem:
     a serial algorithm will be used

     Found symmetry operation: I + ( -0.0000  0.3333  0.0000)
     This is a supercell, fractional translations are disabled

     G-vector sticks info
     --------------------
     sticks:   dense  smooth     PW     G-vecs:    dense   smooth      PW
     Sum        9565    4267   1069              1056033   312933   39091



     bravais-lattice index     =            4
     lattice parameter (alat)  =      18.0974  a.u.
     unit-cell volume          =    7170.7032 (a.u.)^3
     number of atoms/cell      =           54
     number of atomic types    =            3
     number of electrons       =       468.00
     number of Kohn-Sham states=          281
     kinetic-energy cutoff     =      47.0743  Ry
     charge density cutoff     =     423.6680  Ry
     Exchange-correlation      =  SLA  PW   PBE  PBE ( 1  4  3  4 0 0)

     celldm(1)=  18.097378  celldm(2)=   0.000000  celldm(3)=   1.396961
     celldm(4)=   0.000000  celldm(5)=   0.000000  celldm(6)=   0.000000

     crystal axes: (cart. coord. in units of alat)
               a(1) = (   1.000000   0.000000   0.000000 )  
               a(2) = (  -0.500000   0.866025   0.000000 )  
               a(3) = (   0.000000   0.000000   1.396961 )  

     reciprocal axes: (cart. coord. in units 2 pi/alat)
               b(1) = (  1.000000  0.577350 -0.000000 )  
               b(2) = (  0.000000  1.154701  0.000000 )  
               b(3) = (  0.000000 -0.000000  0.715840 )  


     PseudoPot. # 1 for Sn read from file:
     ./pseudo\Sn.pbe-dn-rrkjus_psl.1.0.0.UPF
     MD5 check sum: 6923576d35b7bb477f9d834f190d2db6
     Pseudo is Ultrasoft + core correction, Zval = 14.0
     Generated using "atomic" code by A. Dal Corso v.5.1.2
     Using radial grid of 1243 points,  6 beta functions with: 
                l(1) =   0
                l(2) =   0
                l(3) =   1
                l(4) =   1
                l(5) =   2
                l(6) =   2
     Q(r) pseudized with 0 coefficients 


     PseudoPot. # 2 for Se read from file:
     ./pseudo\Se.pbe-n-rrkjus_psl.1.0.0.UPF
     MD5 check sum: b4fde84b927950421ac83de11f467c93
     Pseudo is Ultrasoft + core correction, Zval =  6.0
     Generated using "atomic" code by A. Dal Corso v.5.1.2
     Using radial grid of 1211 points,  4 beta functions with: 
                l(1) =   0
                l(2) =   0
                l(3) =   1
                l(4) =   1
     Q(r) pseudized with 0 coefficients 


     PseudoPot. # 3 for W  read from file:
     ./pseudo\W.pbe-nsp-van.UPF
     MD5 check sum: d6466f82beb0ca8b88800d998c44bca0
     Pseudo is Ultrasoft + core correction, Zval = 14.0
     Generated by new atomic code, or converted to UPF format
     Using radial grid of  923 points,  6 beta functions with: 
                l(1) =   0
                l(2) =   0
                l(3) =   1
                l(4) =   1
                l(5) =   2
                l(6) =   2
     Q(r) pseudized with  6 coefficients,  rinner =    1.000   1.000   1.000
                                                       1.000   1.000

     atomic species   valence    mass     pseudopotential
        Sn            14.00   118.71000     Sn( 1.00)
        Se             6.00    78.96000     Se( 1.00)
        W             14.00   183.84000     W ( 1.00)

      6 Sym. Ops. (no inversion) found



   Cartesian axes

     site n.     atom                  positions (alat units)
         1           Sn  tau(   1) = (   0.0000000   0.1924498   1.0477200  )
         2           Sn  tau(   2) = (  -0.1666666   0.4811247   1.0477200  )
         3           Sn  tau(   3) = (  -0.3333331   0.7697998   1.0477200  )
         4           Sn  tau(   4) = (   0.3333331   0.1924498   1.0477200  )
         5           Sn  tau(   5) = (   0.1666666   0.4811247   1.0477200  )
         6           Sn  tau(   6) = (   0.0000000   0.7697998   1.0477200  )
         7           Sn  tau(   7) = (   0.6666664   0.1924498   1.0477200  )
         8           Sn  tau(   8) = (   0.4999998   0.4811247   1.0477200  )
         9           Sn  tau(   9) = (   0.3333331   0.7697998   1.0477200  )
        10           Se  tau(  10) = (   0.1666665   0.0962249   0.8843902  )
        11           Se  tau(  11) = (  -0.0000002   0.3848998   0.8843902  )
        12           Se  tau(  12) = (  -0.1666668   0.6735749   0.8843902  )
        13           Se  tau(  13) = (   0.4999996   0.0962249   0.8843902  )
        14           Se  tau(  14) = (   0.3333330   0.3848998   0.8843902  )
        15           Se  tau(  15) = (   0.1666665   0.6735749   0.8843902  )
        16           Se  tau(  16) = (   0.8333327   0.0962249   0.8843902  )
        17           Se  tau(  17) = (   0.6666661   0.3848998   0.8843902  )
        18           Se  tau(  18) = (   0.4999996   0.6735749   0.8843902  )
        19           Se  tau(  19) = (   0.0000000   0.1924498   0.5125698  )
        20           Se  tau(  20) = (  -0.1666666   0.4811247   0.5125698  )
        21           Se  tau(  21) = (  -0.3333331   0.7697998   0.5125698  )
        22           Se  tau(  22) = (   0.3333331   0.1924498   0.5125698  )
        23           Se  tau(  23) = (   0.1666666   0.4811247   0.5125698  )
        24           Se  tau(  24) = (   0.0000000   0.7697998   0.5125698  )
        25           Se  tau(  25) = (   0.6666664   0.1924498   0.5125698  )
        26           Se  tau(  26) = (   0.4999998   0.4811247   0.5125698  )
        27           Se  tau(  27) = (   0.3333331   0.7697998   0.5125698  )
        28           Se  tau(  28) = (   0.1666665   0.0962249   1.2110497  )
        29           Se  tau(  29) = (  -0.0000002   0.3848998   1.2110497  )
        30           Se  tau(  30) = (  -0.1666668   0.6735749   1.2110497  )
        31           Se  tau(  31) = (   0.4999996   0.0962249   1.2110497  )
        32           Se  tau(  32) = (   0.3333330   0.3848998   1.2110497  )
        33           Se  tau(  33) = (   0.1666665   0.6735749   1.2110497  )
        34           Se  tau(  34) = (   0.8333327   0.0962249   1.2110497  )
        35           Se  tau(  35) = (   0.6666661   0.3848998   1.2110497  )
        36           Se  tau(  36) = (   0.4999996   0.6735749   1.2110497  )
        37           Se  tau(  37) = (   0.0000000   0.1924498   0.1859102  )
        38           Se  tau(  38) = (  -0.1666666   0.4811247   0.1859102  )
        39           Se  tau(  39) = (  -0.3333331   0.7697998   0.1859102  )
        40           Se  tau(  40) = (   0.3333331   0.1924498   0.1859102  )
        41           Se  tau(  41) = (   0.1666666   0.4811247   0.1859102  )
        42           Se  tau(  42) = (   0.0000000   0.7697998   0.1859102  )
        43           Se  tau(  43) = (   0.6666664   0.1924498   0.1859102  )
        44           Se  tau(  44) = (   0.4999998   0.4811247   0.1859102  )
        45           Se  tau(  45) = (   0.3333331   0.7697998   0.1859102  )
        46           W   tau(  46) = (   0.1666665   0.0962249   0.3492400  )
        47           W   tau(  47) = (  -0.0000002   0.3848998   0.3492400  )
        48           W   tau(  48) = (  -0.1666668   0.6735749   0.3492400  )
        49           W   tau(  49) = (   0.4999996   0.0962249   0.3492400  )
        50           W   tau(  50) = (   0.3333330   0.3848998   0.3492400  )
        51           W   tau(  51) = (   0.1666665   0.6735749   0.3492400  )
        52           W   tau(  52) = (   0.8333327   0.0962249   0.3492400  )
        53           W   tau(  53) = (   0.6666661   0.3848998   0.3492400  )
        54           W   tau(  54) = (   0.4999996   0.6735749   0.3492400  )

     number of k points=     1  gaussian smearing, width (Ry)=  0.0100
                       cart. coord. in units 2pi/alat
        k(    1) = (   0.0000000   0.0000000   0.0000000), wk =   2.0000000

     Dense  grid:  1056033 G-vectors     FFT dimensions: ( 120, 120, 180)

     Smooth grid:   312933 G-vectors     FFT dimensions: (  80,  80, 120)

     Estimated max dynamical RAM per process >       4.40 GB
     Message from routine read_rhog:
     Conversion: Gamma charge to K charge
