
     Program PWSCF v.6.4.1 starts on 19May2021 at 17:43:23 

     This program is part of the open-source Quantum ESPRESSO suite
     for quantum simulation of materials; please cite
         "P. Giannozzi et al., J. Phys.:Condens. Matter 21 395502 (2009);
         "P. Giannozzi et al., J. Phys.:Condens. Matter 29 465901 (2017);
          URL http://www.quantum-espresso.org", 
     in publications or presentations arising from this work. More details at
     http://www.quantum-espresso.org/quote

     Parallel version (MPI & OpenMP), running on      12 processor cores
     Number of MPI processes:                 1
     Threads/MPI process:                    12

     MPI processes distributed on     1 nodes
     Waiting for input...
     Reading input from standard input

     Current dimensions of program PWSCF are:
     Max number of different atomic species (ntypx) = 10
     Max number of k-points (npk) =  40000
     Max angular momentum in pseudopotentials (lmaxx) =  3
     Message from routine iosys:
     wrong startingpot: use default (2)

     Atomic positions and unit cell read from directory:
     ./out/\Si_exc1.save\

     Message from routine read_upf::
     Pseudo file Sn.pbe-dn-rrkjus_psl.1.0.0.UPF has been fixed on the fly.
To avoid this message in the future, permanently fix 
 your pseudo files following these instructions: 
https://gitlab.com/QEF/q-e/blob/master/upftools/how_to_fix_upf.md
     Message from routine read_upf::
     Pseudo file Se.pbe-n-rrkjus_psl.1.0.0.UPF has been fixed on the fly.
To avoid this message in the future, permanently fix 
 your pseudo files following these instructions: 
https://gitlab.com/QEF/q-e/blob/master/upftools/how_to_fix_upf.md
               file Sn.pbe-dn-rrkjus_psl.1.0.0.UPF: wavefunction(s)  5S 4D renormalized

     gamma-point specific algorithms are used

     Subspace diagonalization in iterative solution of the eigenvalue problem:
     a serial algorithm will be used

     Found symmetry operation: I + ( -0.0000  0.3333  0.0000)
     This is a supercell, fractional translations are disabled

     G-vector sticks info
     --------------------
     sticks:   dense  smooth     PW     G-vecs:    dense   smooth      PW
     Sum        9565    4267   1069              1056033   312933   39091



     bravais-lattice index     =            4
     lattice parameter (alat)  =      18.0974  a.u.
     unit-cell volume          =    7170.7032 (a.u.)^3
     number of atoms/cell      =           54
     number of atomic types    =            3
     number of electrons       =       468.00
     number of Kohn-Sham states=          281
     kinetic-energy cutoff     =      47.0743  Ry
     charge density cutoff     =     423.6680  Ry
     Exchange-correlation      =  SLA  PW   PBE  PBE ( 1  4  3  4 0 0)

     celldm(1)=  18.097378  celldm(2)=   0.000000  celldm(3)=   1.396961
     celldm(4)=   0.000000  celldm(5)=   0.000000  celldm(6)=   0.000000

     crystal axes: (cart. coord. in units of alat)
               a(1) = (   1.000000   0.000000   0.000000 )  
               a(2) = (  -0.500000   0.866025   0.000000 )  
               a(3) = (   0.000000   0.000000   1.396961 )  

     reciprocal axes: (cart. coord. in units 2 pi/alat)
               b(1) = (  1.000000  0.577350 -0.000000 )  
               b(2) = (  0.000000  1.154701  0.000000 )  
               b(3) = (  0.000000 -0.000000  0.715840 )  


     PseudoPot. # 1 for Sn read from file:
     ./pseudo\Sn.pbe-dn-rrkjus_psl.1.0.0.UPF
     MD5 check sum: 6923576d35b7bb477f9d834f190d2db6
     Pseudo is Ultrasoft + core correction, Zval = 14.0
     Generated using "atomic" code by A. Dal Corso v.5.1.2
     Using radial grid of 1243 points,  6 beta functions with: 
                l(1) =   0
                l(2) =   0
                l(3) =   1
                l(4) =   1
                l(5) =   2
                l(6) =   2
     Q(r) pseudized with 0 coefficients 


     PseudoPot. # 2 for Se read from file:
     ./pseudo\Se.pbe-n-rrkjus_psl.1.0.0.UPF
     MD5 check sum: b4fde84b927950421ac83de11f467c93
     Pseudo is Ultrasoft + core correction, Zval =  6.0
     Generated using "atomic" code by A. Dal Corso v.5.1.2
     Using radial grid of 1211 points,  4 beta functions with: 
                l(1) =   0
                l(2) =   0
                l(3) =   1
                l(4) =   1
     Q(r) pseudized with 0 coefficients 


     PseudoPot. # 3 for W  read from file:
     ./pseudo\W.pbe-nsp-van.UPF
     MD5 check sum: d6466f82beb0ca8b88800d998c44bca0
     Pseudo is Ultrasoft + core correction, Zval = 14.0
     Generated by new atomic code, or converted to UPF format
     Using radial grid of  923 points,  6 beta functions with: 
                l(1) =   0
                l(2) =   0
                l(3) =   1
                l(4) =   1
                l(5) =   2
                l(6) =   2
     Q(r) pseudized with  6 coefficients,  rinner =    1.000   1.000   1.000
                                                       1.000   1.000

     atomic species   valence    mass     pseudopotential
        Sn            14.00   118.71000     Sn( 1.00)
        Se             6.00    78.96000     Se( 1.00)
        W             14.00   183.84000     W ( 1.00)

      6 Sym. Ops. (no inversion) found



   Cartesian axes

     site n.     atom                  positions (alat units)
         1           Sn  tau(   1) = (   0.0000000   0.1924498   1.0477200  )
         2           Sn  tau(   2) = (  -0.1666666   0.4811247   1.0477200  )
         3           Sn  tau(   3) = (  -0.3333331   0.7697998   1.0477200  )
         4           Sn  tau(   4) = (   0.3333331   0.1924498   1.0477200  )
         5           Sn  tau(   5) = (   0.1666666   0.4811247   1.0477200  )
         6           Sn  tau(   6) = (   0.0000000   0.7697998   1.0477200  )
         7           Sn  tau(   7) = (   0.6666664   0.1924498   1.0477200  )
         8           Sn  tau(   8) = (   0.4999998   0.4811247   1.0477200  )
         9           Sn  tau(   9) = (   0.3333331   0.7697998   1.0477200  )
        10           Se  tau(  10) = (   0.1666665   0.0962249   0.8843902  )
        11           Se  tau(  11) = (  -0.0000002   0.3848998   0.8843902  )
        12           Se  tau(  12) = (  -0.1666668   0.6735749   0.8843902  )
        13           Se  tau(  13) = (   0.4999996   0.0962249   0.8843902  )
        14           Se  tau(  14) = (   0.3333330   0.3848998   0.8843902  )
        15           Se  tau(  15) = (   0.1666665   0.6735749   0.8843902  )
        16           Se  tau(  16) = (   0.8333327   0.0962249   0.8843902  )
        17           Se  tau(  17) = (   0.6666661   0.3848998   0.8843902  )
        18           Se  tau(  18) = (   0.4999996   0.6735749   0.8843902  )
        19           Se  tau(  19) = (   0.0000000   0.1924498   0.5125698  )
        20           Se  tau(  20) = (  -0.1666666   0.4811247   0.5125698  )
        21           Se  tau(  21) = (  -0.3333331   0.7697998   0.5125698  )
        22           Se  tau(  22) = (   0.3333331   0.1924498   0.5125698  )
        23           Se  tau(  23) = (   0.1666666   0.4811247   0.5125698  )
        24           Se  tau(  24) = (   0.0000000   0.7697998   0.5125698  )
        25           Se  tau(  25) = (   0.6666664   0.1924498   0.5125698  )
        26           Se  tau(  26) = (   0.4999998   0.4811247   0.5125698  )
        27           Se  tau(  27) = (   0.3333331   0.7697998   0.5125698  )
        28           Se  tau(  28) = (   0.1666665   0.0962249   1.2110497  )
        29           Se  tau(  29) = (  -0.0000002   0.3848998   1.2110497  )
        30           Se  tau(  30) = (  -0.1666668   0.6735749   1.2110497  )
        31           Se  tau(  31) = (   0.4999996   0.0962249   1.2110497  )
        32           Se  tau(  32) = (   0.3333330   0.3848998   1.2110497  )
        33           Se  tau(  33) = (   0.1666665   0.6735749   1.2110497  )
        34           Se  tau(  34) = (   0.8333327   0.0962249   1.2110497  )
        35           Se  tau(  35) = (   0.6666661   0.3848998   1.2110497  )
        36           Se  tau(  36) = (   0.4999996   0.6735749   1.2110497  )
        37           Se  tau(  37) = (   0.0000000   0.1924498   0.1859102  )
        38           Se  tau(  38) = (  -0.1666666   0.4811247   0.1859102  )
        39           Se  tau(  39) = (  -0.3333331   0.7697998   0.1859102  )
        40           Se  tau(  40) = (   0.3333331   0.1924498   0.1859102  )
        41           Se  tau(  41) = (   0.1666666   0.4811247   0.1859102  )
        42           Se  tau(  42) = (   0.0000000   0.7697998   0.1859102  )
        43           Se  tau(  43) = (   0.6666664   0.1924498   0.1859102  )
        44           Se  tau(  44) = (   0.4999998   0.4811247   0.1859102  )
        45           Se  tau(  45) = (   0.3333331   0.7697998   0.1859102  )
        46           W   tau(  46) = (   0.1666665   0.0962249   0.3492400  )
        47           W   tau(  47) = (  -0.0000002   0.3848998   0.3492400  )
        48           W   tau(  48) = (  -0.1666668   0.6735749   0.3492400  )
        49           W   tau(  49) = (   0.4999996   0.0962249   0.3492400  )
        50           W   tau(  50) = (   0.3333330   0.3848998   0.3492400  )
        51           W   tau(  51) = (   0.1666665   0.6735749   0.3492400  )
        52           W   tau(  52) = (   0.8333327   0.0962249   0.3492400  )
        53           W   tau(  53) = (   0.6666661   0.3848998   0.3492400  )
        54           W   tau(  54) = (   0.4999996   0.6735749   0.3492400  )

     number of k points=     1  gaussian smearing, width (Ry)=  0.0100
                       cart. coord. in units 2pi/alat
        k(    1) = (   0.0000000   0.0000000   0.0000000), wk =   2.0000000

     Dense  grid:   528017 G-vectors     FFT dimensions: ( 120, 120, 180)

     Smooth grid:   156467 G-vectors     FFT dimensions: (  80,  80, 120)

     Estimated max dynamical RAM per process >       2.28 GB

     The potential is recalculated from file :
     ./out/\Si_exc1.save\charge-density

     Starting wfcs are  342 randomized atomic wfcs

     Band Structure Calculation
     Davidson diagonalization with overlap
     c_bands:  2 eigenvalues not converged

     ethr =  2.14E-10,  avg # of iterations =120.0

     total cpu time spent up to now is      102.3 secs

     End of band structure calculation

          k = 0.0000 0.0000 0.0000 ( 19546 PWs)   bands (ev):

   -62.5399 -62.5314 -62.5292 -62.5259 -62.5252 -62.5233 -62.5230 -62.5209
   -62.5174 -27.0326 -26.9971 -26.9962 -26.9949 -26.9943 -26.9939 -26.9937
   -26.9913 -26.9913 -26.9820 -26.9798 -26.9765 -26.9760 -26.9743 -26.9740
   -26.9509 -26.9481 -26.9481 -26.9472 -26.7887 -26.7885 -26.7877 -26.7875
   -26.7850 -26.7850 -26.7253 -26.7253 -11.5119 -11.5119 -11.5119 -11.5118
   -11.5118 -11.5118 -11.4438 -11.4438 -11.4170 -11.4169 -11.4169 -11.4169
   -11.4169 -11.4168 -11.3954 -11.3954 -11.3857 -11.3857 -11.3215 -11.3215
   -11.2979 -11.2427 -11.2427 -11.2220 -11.2220 -11.2219 -11.2219 -11.2219
   -11.2219 -11.1841 -11.1840 -11.1840 -11.1840 -11.1840 -11.1839 -11.1818
   -11.1818 -11.1493 -11.1493 -11.1493 -11.1492 -11.1492 -11.1492 -11.1102
   -11.1102  -6.3291  -4.6038  -4.3609  -4.3608  -4.3608  -4.3608  -4.3608
    -4.3607  -3.7978  -2.9511  -2.9506  -2.9505  -2.9501  -2.9501  -2.9495
    -2.8144  -2.3803  -2.3803  -2.1964  -2.1960  -2.1959  -2.1956  -2.1955
    -2.1950  -1.9491  -1.9491  -1.9491  -1.9490  -1.9490  -1.9489  -1.8113
    -1.8112  -1.7137  -1.7137  -0.5138  -0.5138   2.0107   2.0107   3.1954
     3.2210   3.2210   3.2210   3.2211   3.2211   3.2211   3.9159   3.9159
     4.3354   4.8247   4.8248   4.8250   4.8252   4.8253   4.8254   4.8407
     4.8407   5.1728   5.1739   5.3153   5.3153   5.4131   5.4131   5.4131
     5.4132   5.4132   5.4132   6.1342   6.1342   6.1580   6.1580   6.1582
     6.1584   6.1584   6.1586   6.3077   6.3077   6.3077   6.3078   6.3078
     6.3078   6.3214   6.3218   6.3220   6.3223   6.3224   6.3227   6.6834
     6.6834   6.9834   6.9834   7.2274   7.2274   7.3882   7.5059   7.5066
     7.9214   7.9216   7.9219   7.9223   7.9230   7.9232   8.1920   8.1920
     8.7039   8.7039   8.7813   8.7813   8.7813   8.7813   8.7814   8.7814
     8.8800   8.8802   8.8802   8.8804   8.8805   8.8807   9.4208   9.5582
     9.5582   9.6066   9.6068   9.6070   9.6072   9.6075   9.6078   9.6721
     9.6726   9.6728   9.6730   9.6734   9.6737   9.8584   9.8586   9.8586
     9.8587   9.8587   9.8589  10.7408  10.7408  10.7906  11.0588  11.0588
    11.1258  11.1258  11.1258  11.1258  11.1259  11.1259  11.2171  11.2171
    12.2975  12.2975  12.7510  12.7532  12.8102  12.8102  12.8179  12.8179
    12.8727  12.8727  12.8728  12.8728  12.8728  12.8728  13.5451  13.5457
    13.5461  13.5462  13.5466  13.5468  13.8004  13.8005  13.8010  13.8011
    13.8024  13.8025  14.0578  14.1476  14.1477  14.1478  14.1478  14.1479
    14.1479  14.2613  14.2613  14.4361  14.4362  14.8964  14.8964  14.9623
    14.9624  14.9627  14.9628  14.9634  14.9635  15.4385  15.4385  16.1379
    16.1382

     the Fermi energy is    12.5197 ev

     Writing output data file Si_exc1.save\

     init_run     :     39.73s CPU     16.00s WALL (       1 calls)
     electrons    :    482.23s CPU     82.23s WALL (       1 calls)

     Called by init_run:
     wfcinit      :      0.08s CPU      0.01s WALL (       1 calls)
     potinit      :      4.92s CPU      0.64s WALL (       1 calls)
     hinit0       :     16.73s CPU     12.14s WALL (       1 calls)

     Called by electrons:
     c_bands      :    481.77s CPU     82.12s WALL (       1 calls)
     v_of_rho     :      4.17s CPU      0.52s WALL (       1 calls)
     newd         :     17.86s CPU      3.07s WALL (       1 calls)

     Called by c_bands:
     init_us_2    :      0.19s CPU      0.03s WALL (       1 calls)
     regterg      :    462.06s CPU     78.38s WALL (       6 calls)

     Called by sum_band:

     Called by *egterg:
     h_psi        :    264.27s CPU     44.74s WALL (     127 calls)
     s_psi        :     28.92s CPU      4.90s WALL (     127 calls)
     g_psi        :      1.75s CPU      0.21s WALL (     120 calls)
     rdiaghg      :     66.08s CPU     11.17s WALL (     121 calls)

     Called by h_psi:
     h_psi:pot    :    259.80s CPU     44.32s WALL (     127 calls)
     h_psi:calbec :     23.30s CPU      3.84s WALL (     127 calls)
     vloc_psi     :    208.27s CPU     35.70s WALL (     127 calls)
     add_vuspsi   :     28.23s CPU      4.77s WALL (     127 calls)

     General routines
     calbec       :     23.30s CPU      3.84s WALL (     127 calls)
     fft          :      1.12s CPU      0.19s WALL (      11 calls)
     ffts         :      0.00s CPU      0.00s WALL (       1 calls)
     fftw         :     98.09s CPU     16.08s WALL (    6250 calls)
     interpolate  :      0.27s CPU      0.04s WALL (       1 calls)
     davcio       :      0.98s CPU      0.24s WALL (       2 calls)

     Parallel routines

     PWSCF        :   8m45.98s CPU   1m42.57s WALL


   This run was terminated on:  17:45: 5  19May2021            

=------------------------------------------------------------------------------=
   JOB DONE.
=------------------------------------------------------------------------------=
